+ 0.02 0 2 ping 64 ------- 1 0.0 4.0 -1 0
- 0.02 0 2 ping 64 ------- 1 0.0 4.0 -1 0
+ 0.02 1 2 ping 64 ------- 2 1.0 5.0 -1 1
- 0.02 1 2 ping 64 ------- 2 1.0 5.0 -1 1
+ 0.02 4 3 ping 64 ------- 3 4.0 0.0 -1 2
- 0.02 4 3 ping 64 ------- 3 4.0 0.0 -1 2
+ 0.02 5 3 ping 64 ------- 4 5.0 1.0 -1 3
- 0.02 5 3 ping 64 ------- 4 5.0 1.0 -1 3
+ 0.03 0 2 ping 64 ------- 1 0.0 4.0 -1 4
- 0.03 0 2 ping 64 ------- 1 0.0 4.0 -1 4
+ 0.03 1 2 ping 64 ------- 2 1.0 5.0 -1 5
- 0.03 1 2 ping 64 ------- 2 1.0 5.0 -1 5
+ 0.03 4 3 ping 64 ------- 3 4.0 0.0 -1 6
- 0.03 4 3 ping 64 ------- 3 4.0 0.0 -1 6
+ 0.03 5 3 ping 64 ------- 4 5.0 1.0 -1 7
- 0.03 5 3 ping 64 ------- 4 5.0 1.0 -1 7
r 0.030256 0 2 ping 64 ------- 1 0.0 4.0 -1 0
+ 0.030256 2 3 ping 64 ------- 1 0.0 4.0 -1 0
- 0.030256 2 3 ping 64 ------- 1 0.0 4.0 -1 0
r 0.030256 1 2 ping 64 ------- 2 1.0 5.0 -1 1
+ 0.030256 2 3 ping 64 ------- 2 1.0 5.0 -1 1
r 0.030256 4 3 ping 64 ------- 3 4.0 0.0 -1 2
+ 0.030256 3 2 ping 64 ------- 3 4.0 0.0 -1 2
- 0.030256 3 2 ping 64 ------- 3 4.0 0.0 -1 2
r 0.030256 5 3 ping 64 ------- 4 5.0 1.0 -1 3
+ 0.030256 3 2 ping 64 ------- 4 5.0 1.0 -1 3
- 0.032816 2 3 ping 64 ------- 2 1.0 5.0 -1 1
- 0.032816 3 2 ping 64 ------- 4 5.0 1.0 -1 3
+ 0.04 0 2 ping 64 ------- 1 0.0 4.0 -1 8
- 0.04 0 2 ping 64 ------- 1 0.0 4.0 -1 8
+ 0.04 1 2 ping 64 ------- 2 1.0 5.0 -1 9
- 0.04 1 2 ping 64 ------- 2 1.0 5.0 -1 9
+ 0.04 4 3 ping 64 ------- 3 4.0 0.0 -1 10
- 0.04 4 3 ping 64 ------- 3 4.0 0.0 -1 10
+ 0.04 5 3 ping 64 ------- 4 5.0 1.0 -1 11
- 0.04 5 3 ping 64 ------- 4 5.0 1.0 -1 11
r 0.040256 0 2 ping 64 ------- 1 0.0 4.0 -1 4
+ 0.040256 2 3 ping 64 ------- 1 0.0 4.0 -1 4
- 0.040256 2 3 ping 64 ------- 1 0.0 4.0 -1 4
r 0.040256 1 2 ping 64 ------- 2 1.0 5.0 -1 5
+ 0.040256 2 3 ping 64 ------- 2 1.0 5.0 -1 5
r 0.040256 4 3 ping 64 ------- 3 4.0 0.0 -1 6
+ 0.040256 3 2 ping 64 ------- 3 4.0 0.0 -1 6
- 0.040256 3 2 ping 64 ------- 3 4.0 0.0 -1 6
r 0.040256 5 3 ping 64 ------- 4 5.0 1.0 -1 7
+ 0.040256 3 2 ping 64 ------- 4 5.0 1.0 -1 7
r 0.042816 2 3 ping 64 ------- 1 0.0 4.0 -1 0
+ 0.042816 3 4 ping 64 ------- 1 0.0 4.0 -1 0
- 0.042816 3 4 ping 64 ------- 1 0.0 4.0 -1 0
r 0.042816 3 2 ping 64 ------- 3 4.0 0.0 -1 2
+ 0.042816 2 0 ping 64 ------- 3 4.0 0.0 -1 2
- 0.042816 2 0 ping 64 ------- 3 4.0 0.0 -1 2
- 0.042816 2 3 ping 64 ------- 2 1.0 5.0 -1 5
- 0.042816 3 2 ping 64 ------- 4 5.0 1.0 -1 7
r 0.045376 2 3 ping 64 ------- 2 1.0 5.0 -1 1
+ 0.045376 3 5 ping 64 ------- 2 1.0 5.0 -1 1
- 0.045376 3 5 ping 64 ------- 2 1.0 5.0 -1 1
r 0.045376 3 2 ping 64 ------- 4 5.0 1.0 -1 3
+ 0.045376 2 1 ping 64 ------- 4 5.0 1.0 -1 3
- 0.045376 2 1 ping 64 ------- 4 5.0 1.0 -1 3
+ 0.05 0 2 ping 64 ------- 1 0.0 4.0 -1 12
- 0.05 0 2 ping 64 ------- 1 0.0 4.0 -1 12
+ 0.05 1 2 ping 64 ------- 2 1.0 5.0 -1 13
- 0.05 1 2 ping 64 ------- 2 1.0 5.0 -1 13
+ 0.05 4 3 ping 64 ------- 3 4.0 0.0 -1 14
- 0.05 4 3 ping 64 ------- 3 4.0 0.0 -1 14
+ 0.05 5 3 ping 64 ------- 4 5.0 1.0 -1 15
- 0.05 5 3 ping 64 ------- 4 5.0 1.0 -1 15
r 0.050256 0 2 ping 64 ------- 1 0.0 4.0 -1 8
+ 0.050256 2 3 ping 64 ------- 1 0.0 4.0 -1 8
- 0.050256 2 3 ping 64 ------- 1 0.0 4.0 -1 8
r 0.050256 1 2 ping 64 ------- 2 1.0 5.0 -1 9
+ 0.050256 2 3 ping 64 ------- 2 1.0 5.0 -1 9
r 0.050256 4 3 ping 64 ------- 3 4.0 0.0 -1 10
+ 0.050256 3 2 ping 64 ------- 3 4.0 0.0 -1 10
- 0.050256 3 2 ping 64 ------- 3 4.0 0.0 -1 10
r 0.050256 5 3 ping 64 ------- 4 5.0 1.0 -1 11
+ 0.050256 3 2 ping 64 ------- 4 5.0 1.0 -1 11
r 0.052816 2 3 ping 64 ------- 1 0.0 4.0 -1 4
+ 0.052816 3 4 ping 64 ------- 1 0.0 4.0 -1 4
- 0.052816 3 4 ping 64 ------- 1 0.0 4.0 -1 4
r 0.052816 3 2 ping 64 ------- 3 4.0 0.0 -1 6
+ 0.052816 2 0 ping 64 ------- 3 4.0 0.0 -1 6
- 0.052816 2 0 ping 64 ------- 3 4.0 0.0 -1 6
- 0.052816 2 3 ping 64 ------- 2 1.0 5.0 -1 9
- 0.052816 3 2 ping 64 ------- 4 5.0 1.0 -1 11
r 0.053072 3 4 ping 64 ------- 1 0.0 4.0 -1 0
+ 0.053072 4 3 ping 64 ------- 3 4.0 0.0 -1 16
- 0.053072 4 3 ping 64 ------- 3 4.0 0.0 -1 16
r 0.053072 2 0 ping 64 ------- 3 4.0 0.0 -1 2
+ 0.053072 0 2 ping 64 ------- 1 0.0 4.0 -1 17
- 0.053072 0 2 ping 64 ------- 1 0.0 4.0 -1 17
r 0.055376 2 3 ping 64 ------- 2 1.0 5.0 -1 5
+ 0.055376 3 5 ping 64 ------- 2 1.0 5.0 -1 5
- 0.055376 3 5 ping 64 ------- 2 1.0 5.0 -1 5
r 0.055376 3 2 ping 64 ------- 4 5.0 1.0 -1 7
+ 0.055376 2 1 ping 64 ------- 4 5.0 1.0 -1 7
- 0.055376 2 1 ping 64 ------- 4 5.0 1.0 -1 7
r 0.055632 3 5 ping 64 ------- 2 1.0 5.0 -1 1
+ 0.055632 5 3 ping 64 ------- 4 5.0 1.0 -1 18
- 0.055632 5 3 ping 64 ------- 4 5.0 1.0 -1 18
r 0.055632 2 1 ping 64 ------- 4 5.0 1.0 -1 3
+ 0.055632 1 2 ping 64 ------- 2 1.0 5.0 -1 19
- 0.055632 1 2 ping 64 ------- 2 1.0 5.0 -1 19
+ 0.06 0 2 ping 64 ------- 1 0.0 4.0 -1 20
- 0.06 0 2 ping 64 ------- 1 0.0 4.0 -1 20
+ 0.06 1 2 ping 64 ------- 2 1.0 5.0 -1 21
- 0.06 1 2 ping 64 ------- 2 1.0 5.0 -1 21
+ 0.06 4 3 ping 64 ------- 3 4.0 0.0 -1 22
- 0.06 4 3 ping 64 ------- 3 4.0 0.0 -1 22
+ 0.06 5 3 ping 64 ------- 4 5.0 1.0 -1 23
- 0.06 5 3 ping 64 ------- 4 5.0 1.0 -1 23
r 0.060256 0 2 ping 64 ------- 1 0.0 4.0 -1 12
+ 0.060256 2 3 ping 64 ------- 1 0.0 4.0 -1 12
- 0.060256 2 3 ping 64 ------- 1 0.0 4.0 -1 12
r 0.060256 1 2 ping 64 ------- 2 1.0 5.0 -1 13
+ 0.060256 2 3 ping 64 ------- 2 1.0 5.0 -1 13
r 0.060256 4 3 ping 64 ------- 3 4.0 0.0 -1 14
+ 0.060256 3 2 ping 64 ------- 3 4.0 0.0 -1 14
- 0.060256 3 2 ping 64 ------- 3 4.0 0.0 -1 14
r 0.060256 5 3 ping 64 ------- 4 5.0 1.0 -1 15
+ 0.060256 3 2 ping 64 ------- 4 5.0 1.0 -1 15
r 0.062816 2 3 ping 64 ------- 1 0.0 4.0 -1 8
+ 0.062816 3 4 ping 64 ------- 1 0.0 4.0 -1 8
- 0.062816 3 4 ping 64 ------- 1 0.0 4.0 -1 8
r 0.062816 3 2 ping 64 ------- 3 4.0 0.0 -1 10
+ 0.062816 2 0 ping 64 ------- 3 4.0 0.0 -1 10
- 0.062816 2 0 ping 64 ------- 3 4.0 0.0 -1 10
- 0.062816 2 3 ping 64 ------- 2 1.0 5.0 -1 13
- 0.062816 3 2 ping 64 ------- 4 5.0 1.0 -1 15
r 0.063072 3 4 ping 64 ------- 1 0.0 4.0 -1 4
+ 0.063072 4 3 ping 64 ------- 3 4.0 0.0 -1 24
- 0.063072 4 3 ping 64 ------- 3 4.0 0.0 -1 24
r 0.063072 2 0 ping 64 ------- 3 4.0 0.0 -1 6
+ 0.063072 0 2 ping 64 ------- 1 0.0 4.0 -1 25
- 0.063072 0 2 ping 64 ------- 1 0.0 4.0 -1 25
r 0.063328 4 3 ping 64 ------- 3 4.0 0.0 -1 16
+ 0.063328 3 2 ping 64 ------- 3 4.0 0.0 -1 16
r 0.063328 0 2 ping 64 ------- 1 0.0 4.0 -1 17
+ 0.063328 2 3 ping 64 ------- 1 0.0 4.0 -1 17
r 0.065376 2 3 ping 64 ------- 2 1.0 5.0 -1 9
+ 0.065376 3 5 ping 64 ------- 2 1.0 5.0 -1 9
- 0.065376 3 5 ping 64 ------- 2 1.0 5.0 -1 9
r 0.065376 3 2 ping 64 ------- 4 5.0 1.0 -1 11
+ 0.065376 2 1 ping 64 ------- 4 5.0 1.0 -1 11
- 0.065376 2 1 ping 64 ------- 4 5.0 1.0 -1 11
- 0.065376 2 3 ping 64 ------- 1 0.0 4.0 -1 17
- 0.065376 3 2 ping 64 ------- 3 4.0 0.0 -1 16
r 0.065632 3 5 ping 64 ------- 2 1.0 5.0 -1 5
+ 0.065632 5 3 ping 64 ------- 4 5.0 1.0 -1 26
- 0.065632 5 3 ping 64 ------- 4 5.0 1.0 -1 26
r 0.065632 2 1 ping 64 ------- 4 5.0 1.0 -1 7
+ 0.065632 1 2 ping 64 ------- 2 1.0 5.0 -1 27
- 0.065632 1 2 ping 64 ------- 2 1.0 5.0 -1 27
r 0.065888 5 3 ping 64 ------- 4 5.0 1.0 -1 18
+ 0.065888 3 2 ping 64 ------- 4 5.0 1.0 -1 18
r 0.065888 1 2 ping 64 ------- 2 1.0 5.0 -1 19
+ 0.065888 2 3 ping 64 ------- 2 1.0 5.0 -1 19
- 0.067936 2 3 ping 64 ------- 2 1.0 5.0 -1 19
- 0.067936 3 2 ping 64 ------- 4 5.0 1.0 -1 18
+ 0.07 0 2 ping 64 ------- 1 0.0 4.0 -1 28
- 0.07 0 2 ping 64 ------- 1 0.0 4.0 -1 28
+ 0.07 1 2 ping 64 ------- 2 1.0 5.0 -1 29
- 0.07 1 2 ping 64 ------- 2 1.0 5.0 -1 29
+ 0.07 4 3 ping 64 ------- 3 4.0 0.0 -1 30
- 0.07 4 3 ping 64 ------- 3 4.0 0.0 -1 30
+ 0.07 5 3 ping 64 ------- 4 5.0 1.0 -1 31
- 0.07 5 3 ping 64 ------- 4 5.0 1.0 -1 31
r 0.070256 0 2 ping 64 ------- 1 0.0 4.0 -1 20
+ 0.070256 2 3 ping 64 ------- 1 0.0 4.0 -1 20
r 0.070256 1 2 ping 64 ------- 2 1.0 5.0 -1 21
+ 0.070256 2 3 ping 64 ------- 2 1.0 5.0 -1 21
r 0.070256 4 3 ping 64 ------- 3 4.0 0.0 -1 22
+ 0.070256 3 2 ping 64 ------- 3 4.0 0.0 -1 22
r 0.070256 5 3 ping 64 ------- 4 5.0 1.0 -1 23
+ 0.070256 3 2 ping 64 ------- 4 5.0 1.0 -1 23
- 0.070496 2 3 ping 64 ------- 1 0.0 4.0 -1 20
- 0.070496 3 2 ping 64 ------- 3 4.0 0.0 -1 22
r 0.072816 2 3 ping 64 ------- 1 0.0 4.0 -1 12
+ 0.072816 3 4 ping 64 ------- 1 0.0 4.0 -1 12
- 0.072816 3 4 ping 64 ------- 1 0.0 4.0 -1 12
r 0.072816 3 2 ping 64 ------- 3 4.0 0.0 -1 14
+ 0.072816 2 0 ping 64 ------- 3 4.0 0.0 -1 14
- 0.072816 2 0 ping 64 ------- 3 4.0 0.0 -1 14
- 0.073056 2 3 ping 64 ------- 2 1.0 5.0 -1 21
- 0.073056 3 2 ping 64 ------- 4 5.0 1.0 -1 23
r 0.073072 3 4 ping 64 ------- 1 0.0 4.0 -1 8
+ 0.073072 4 3 ping 64 ------- 3 4.0 0.0 -1 32
- 0.073072 4 3 ping 64 ------- 3 4.0 0.0 -1 32
r 0.073072 2 0 ping 64 ------- 3 4.0 0.0 -1 10
+ 0.073072 0 2 ping 64 ------- 1 0.0 4.0 -1 33
- 0.073072 0 2 ping 64 ------- 1 0.0 4.0 -1 33
r 0.073328 4 3 ping 64 ------- 3 4.0 0.0 -1 24
+ 0.073328 3 2 ping 64 ------- 3 4.0 0.0 -1 24
r 0.073328 0 2 ping 64 ------- 1 0.0 4.0 -1 25
+ 0.073328 2 3 ping 64 ------- 1 0.0 4.0 -1 25
r 0.075376 2 3 ping 64 ------- 2 1.0 5.0 -1 13
+ 0.075376 3 5 ping 64 ------- 2 1.0 5.0 -1 13
- 0.075376 3 5 ping 64 ------- 2 1.0 5.0 -1 13
r 0.075376 3 2 ping 64 ------- 4 5.0 1.0 -1 15
+ 0.075376 2 1 ping 64 ------- 4 5.0 1.0 -1 15
- 0.075376 2 1 ping 64 ------- 4 5.0 1.0 -1 15
- 0.075616 2 3 ping 64 ------- 1 0.0 4.0 -1 25
- 0.075616 3 2 ping 64 ------- 3 4.0 0.0 -1 24
r 0.075632 3 5 ping 64 ------- 2 1.0 5.0 -1 9
+ 0.075632 5 3 ping 64 ------- 4 5.0 1.0 -1 34
- 0.075632 5 3 ping 64 ------- 4 5.0 1.0 -1 34
r 0.075632 2 1 ping 64 ------- 4 5.0 1.0 -1 11
+ 0.075632 1 2 ping 64 ------- 2 1.0 5.0 -1 35
- 0.075632 1 2 ping 64 ------- 2 1.0 5.0 -1 35
r 0.075888 5 3 ping 64 ------- 4 5.0 1.0 -1 26
+ 0.075888 3 2 ping 64 ------- 4 5.0 1.0 -1 26
r 0.075888 1 2 ping 64 ------- 2 1.0 5.0 -1 27
+ 0.075888 2 3 ping 64 ------- 2 1.0 5.0 -1 27
r 0.077936 2 3 ping 64 ------- 1 0.0 4.0 -1 17
+ 0.077936 3 4 ping 64 ------- 1 0.0 4.0 -1 17
- 0.077936 3 4 ping 64 ------- 1 0.0 4.0 -1 17
r 0.077936 3 2 ping 64 ------- 3 4.0 0.0 -1 16
+ 0.077936 2 0 ping 64 ------- 3 4.0 0.0 -1 16
- 0.077936 2 0 ping 64 ------- 3 4.0 0.0 -1 16
- 0.078176 2 3 ping 64 ------- 2 1.0 5.0 -1 27
- 0.078176 3 2 ping 64 ------- 4 5.0 1.0 -1 26
+ 0.08 0 2 ping 64 ------- 1 0.0 4.0 -1 36
- 0.08 0 2 ping 64 ------- 1 0.0 4.0 -1 36
+ 0.08 1 2 ping 64 ------- 2 1.0 5.0 -1 37
- 0.08 1 2 ping 64 ------- 2 1.0 5.0 -1 37
+ 0.08 4 3 ping 64 ------- 3 4.0 0.0 -1 38
- 0.08 4 3 ping 64 ------- 3 4.0 0.0 -1 38
+ 0.08 5 3 ping 64 ------- 4 5.0 1.0 -1 39
- 0.08 5 3 ping 64 ------- 4 5.0 1.0 -1 39
r 0.080256 0 2 ping 64 ------- 1 0.0 4.0 -1 28
+ 0.080256 2 3 ping 64 ------- 1 0.0 4.0 -1 28
r 0.080256 1 2 ping 64 ------- 2 1.0 5.0 -1 29
+ 0.080256 2 3 ping 64 ------- 2 1.0 5.0 -1 29
r 0.080256 4 3 ping 64 ------- 3 4.0 0.0 -1 30
+ 0.080256 3 2 ping 64 ------- 3 4.0 0.0 -1 30
r 0.080256 5 3 ping 64 ------- 4 5.0 1.0 -1 31
+ 0.080256 3 2 ping 64 ------- 4 5.0 1.0 -1 31
r 0.080496 2 3 ping 64 ------- 2 1.0 5.0 -1 19
+ 0.080496 3 5 ping 64 ------- 2 1.0 5.0 -1 19
- 0.080496 3 5 ping 64 ------- 2 1.0 5.0 -1 19
r 0.080496 3 2 ping 64 ------- 4 5.0 1.0 -1 18
+ 0.080496 2 1 ping 64 ------- 4 5.0 1.0 -1 18
- 0.080496 2 1 ping 64 ------- 4 5.0 1.0 -1 18
- 0.080736 2 3 ping 64 ------- 1 0.0 4.0 -1 28
- 0.080736 3 2 ping 64 ------- 3 4.0 0.0 -1 30
r 0.083056 2 3 ping 64 ------- 1 0.0 4.0 -1 20
+ 0.083056 3 4 ping 64 ------- 1 0.0 4.0 -1 20
- 0.083056 3 4 ping 64 ------- 1 0.0 4.0 -1 20
r 0.083056 3 2 ping 64 ------- 3 4.0 0.0 -1 22
+ 0.083056 2 0 ping 64 ------- 3 4.0 0.0 -1 22
- 0.083056 2 0 ping 64 ------- 3 4.0 0.0 -1 22
r 0.083072 3 4 ping 64 ------- 1 0.0 4.0 -1 12
+ 0.083072 4 3 ping 64 ------- 3 4.0 0.0 -1 40
- 0.083072 4 3 ping 64 ------- 3 4.0 0.0 -1 40
r 0.083072 2 0 ping 64 ------- 3 4.0 0.0 -1 14
+ 0.083072 0 2 ping 64 ------- 1 0.0 4.0 -1 41
- 0.083072 0 2 ping 64 ------- 1 0.0 4.0 -1 41
- 0.083296 2 3 ping 64 ------- 2 1.0 5.0 -1 29
- 0.083296 3 2 ping 64 ------- 4 5.0 1.0 -1 31
r 0.083328 4 3 ping 64 ------- 3 4.0 0.0 -1 32
+ 0.083328 3 2 ping 64 ------- 3 4.0 0.0 -1 32
r 0.083328 0 2 ping 64 ------- 1 0.0 4.0 -1 33
+ 0.083328 2 3 ping 64 ------- 1 0.0 4.0 -1 33
r 0.085616 2 3 ping 64 ------- 2 1.0 5.0 -1 21
+ 0.085616 3 5 ping 64 ------- 2 1.0 5.0 -1 21
- 0.085616 3 5 ping 64 ------- 2 1.0 5.0 -1 21
r 0.085616 3 2 ping 64 ------- 4 5.0 1.0 -1 23
+ 0.085616 2 1 ping 64 ------- 4 5.0 1.0 -1 23
- 0.085616 2 1 ping 64 ------- 4 5.0 1.0 -1 23
r 0.085632 3 5 ping 64 ------- 2 1.0 5.0 -1 13
+ 0.085632 5 3 ping 64 ------- 4 5.0 1.0 -1 42
- 0.085632 5 3 ping 64 ------- 4 5.0 1.0 -1 42
r 0.085632 2 1 ping 64 ------- 4 5.0 1.0 -1 15
+ 0.085632 1 2 ping 64 ------- 2 1.0 5.0 -1 43
- 0.085632 1 2 ping 64 ------- 2 1.0 5.0 -1 43
- 0.085856 2 3 ping 64 ------- 1 0.0 4.0 -1 33
- 0.085856 3 2 ping 64 ------- 3 4.0 0.0 -1 32
r 0.085888 5 3 ping 64 ------- 4 5.0 1.0 -1 34
+ 0.085888 3 2 ping 64 ------- 4 5.0 1.0 -1 34
r 0.085888 1 2 ping 64 ------- 2 1.0 5.0 -1 35
+ 0.085888 2 3 ping 64 ------- 2 1.0 5.0 -1 35
r 0.088176 2 3 ping 64 ------- 1 0.0 4.0 -1 25
+ 0.088176 3 4 ping 64 ------- 1 0.0 4.0 -1 25
- 0.088176 3 4 ping 64 ------- 1 0.0 4.0 -1 25
r 0.088176 3 2 ping 64 ------- 3 4.0 0.0 -1 24
+ 0.088176 2 0 ping 64 ------- 3 4.0 0.0 -1 24
- 0.088176 2 0 ping 64 ------- 3 4.0 0.0 -1 24
r 0.088192 3 4 ping 64 ------- 1 0.0 4.0 -1 17
r 0.088192 2 0 ping 64 ------- 3 4.0 0.0 -1 16
- 0.088416 2 3 ping 64 ------- 2 1.0 5.0 -1 35
- 0.088416 3 2 ping 64 ------- 4 5.0 1.0 -1 34
+ 0.09 0 2 ping 64 ------- 1 0.0 4.0 -1 44
- 0.09 0 2 ping 64 ------- 1 0.0 4.0 -1 44
+ 0.09 1 2 ping 64 ------- 2 1.0 5.0 -1 45
- 0.09 1 2 ping 64 ------- 2 1.0 5.0 -1 45
+ 0.09 4 3 ping 64 ------- 3 4.0 0.0 -1 46
- 0.09 4 3 ping 64 ------- 3 4.0 0.0 -1 46
+ 0.09 5 3 ping 64 ------- 4 5.0 1.0 -1 47
- 0.09 5 3 ping 64 ------- 4 5.0 1.0 -1 47
r 0.090256 0 2 ping 64 ------- 1 0.0 4.0 -1 36
+ 0.090256 2 3 ping 64 ------- 1 0.0 4.0 -1 36
r 0.090256 1 2 ping 64 ------- 2 1.0 5.0 -1 37
+ 0.090256 2 3 ping 64 ------- 2 1.0 5.0 -1 37
r 0.090256 4 3 ping 64 ------- 3 4.0 0.0 -1 38
+ 0.090256 3 2 ping 64 ------- 3 4.0 0.0 -1 38
r 0.090256 5 3 ping 64 ------- 4 5.0 1.0 -1 39
+ 0.090256 3 2 ping 64 ------- 4 5.0 1.0 -1 39
r 0.090736 2 3 ping 64 ------- 2 1.0 5.0 -1 27
+ 0.090736 3 5 ping 64 ------- 2 1.0 5.0 -1 27
- 0.090736 3 5 ping 64 ------- 2 1.0 5.0 -1 27
r 0.090736 3 2 ping 64 ------- 4 5.0 1.0 -1 26
+ 0.090736 2 1 ping 64 ------- 4 5.0 1.0 -1 26
- 0.090736 2 1 ping 64 ------- 4 5.0 1.0 -1 26
r 0.090752 3 5 ping 64 ------- 2 1.0 5.0 -1 19
r 0.090752 2 1 ping 64 ------- 4 5.0 1.0 -1 18
- 0.090976 2 3 ping 64 ------- 1 0.0 4.0 -1 36
- 0.090976 3 2 ping 64 ------- 3 4.0 0.0 -1 38
r 0.093296 2 3 ping 64 ------- 1 0.0 4.0 -1 28
+ 0.093296 3 4 ping 64 ------- 1 0.0 4.0 -1 28
- 0.093296 3 4 ping 64 ------- 1 0.0 4.0 -1 28
r 0.093296 3 2 ping 64 ------- 3 4.0 0.0 -1 30
+ 0.093296 2 0 ping 64 ------- 3 4.0 0.0 -1 30
- 0.093296 2 0 ping 64 ------- 3 4.0 0.0 -1 30
r 0.093312 3 4 ping 64 ------- 1 0.0 4.0 -1 20
+ 0.093312 4 3 ping 64 ------- 3 4.0 0.0 -1 48
- 0.093312 4 3 ping 64 ------- 3 4.0 0.0 -1 48
r 0.093312 2 0 ping 64 ------- 3 4.0 0.0 -1 22
+ 0.093312 0 2 ping 64 ------- 1 0.0 4.0 -1 49
- 0.093312 0 2 ping 64 ------- 1 0.0 4.0 -1 49
r 0.093328 4 3 ping 64 ------- 3 4.0 0.0 -1 40
+ 0.093328 3 2 ping 64 ------- 3 4.0 0.0 -1 40
r 0.093328 0 2 ping 64 ------- 1 0.0 4.0 -1 41
+ 0.093328 2 3 ping 64 ------- 1 0.0 4.0 -1 41
- 0.093536 2 3 ping 64 ------- 2 1.0 5.0 -1 37
- 0.093536 3 2 ping 64 ------- 4 5.0 1.0 -1 39
r 0.095856 2 3 ping 64 ------- 2 1.0 5.0 -1 29
+ 0.095856 3 5 ping 64 ------- 2 1.0 5.0 -1 29
- 0.095856 3 5 ping 64 ------- 2 1.0 5.0 -1 29
r 0.095856 3 2 ping 64 ------- 4 5.0 1.0 -1 31
+ 0.095856 2 1 ping 64 ------- 4 5.0 1.0 -1 31
- 0.095856 2 1 ping 64 ------- 4 5.0 1.0 -1 31
r 0.095872 3 5 ping 64 ------- 2 1.0 5.0 -1 21
+ 0.095872 5 3 ping 64 ------- 4 5.0 1.0 -1 50
- 0.095872 5 3 ping 64 ------- 4 5.0 1.0 -1 50
r 0.095872 2 1 ping 64 ------- 4 5.0 1.0 -1 23
+ 0.095872 1 2 ping 64 ------- 2 1.0 5.0 -1 51
- 0.095872 1 2 ping 64 ------- 2 1.0 5.0 -1 51
r 0.095888 5 3 ping 64 ------- 4 5.0 1.0 -1 42
+ 0.095888 3 2 ping 64 ------- 4 5.0 1.0 -1 42
r 0.095888 1 2 ping 64 ------- 2 1.0 5.0 -1 43
+ 0.095888 2 3 ping 64 ------- 2 1.0 5.0 -1 43
- 0.096096 2 3 ping 64 ------- 1 0.0 4.0 -1 41
- 0.096096 3 2 ping 64 ------- 3 4.0 0.0 -1 40
r 0.098416 2 3 ping 64 ------- 1 0.0 4.0 -1 33
+ 0.098416 3 4 ping 64 ------- 1 0.0 4.0 -1 33
- 0.098416 3 4 ping 64 ------- 1 0.0 4.0 -1 33
r 0.098416 3 2 ping 64 ------- 3 4.0 0.0 -1 32
+ 0.098416 2 0 ping 64 ------- 3 4.0 0.0 -1 32
- 0.098416 2 0 ping 64 ------- 3 4.0 0.0 -1 32
r 0.098432 3 4 ping 64 ------- 1 0.0 4.0 -1 25
r 0.098432 2 0 ping 64 ------- 3 4.0 0.0 -1 24
- 0.098656 2 3 ping 64 ------- 2 1.0 5.0 -1 43
- 0.098656 3 2 ping 64 ------- 4 5.0 1.0 -1 42
+ 0.1 0 2 ping 64 ------- 1 0.0 4.0 -1 52
- 0.1 0 2 ping 64 ------- 1 0.0 4.0 -1 52
+ 0.1 1 2 ping 64 ------- 2 1.0 5.0 -1 53
- 0.1 1 2 ping 64 ------- 2 1.0 5.0 -1 53
+ 0.1 4 3 ping 64 ------- 3 4.0 0.0 -1 54
- 0.1 4 3 ping 64 ------- 3 4.0 0.0 -1 54
+ 0.1 5 3 ping 64 ------- 4 5.0 1.0 -1 55
- 0.1 5 3 ping 64 ------- 4 5.0 1.0 -1 55
r 0.100256 0 2 ping 64 ------- 1 0.0 4.0 -1 44
+ 0.100256 2 3 ping 64 ------- 1 0.0 4.0 -1 44
r 0.100256 1 2 ping 64 ------- 2 1.0 5.0 -1 45
+ 0.100256 2 3 ping 64 ------- 2 1.0 5.0 -1 45
r 0.100256 4 3 ping 64 ------- 3 4.0 0.0 -1 46
+ 0.100256 3 2 ping 64 ------- 3 4.0 0.0 -1 46
r 0.100256 5 3 ping 64 ------- 4 5.0 1.0 -1 47
+ 0.100256 3 2 ping 64 ------- 4 5.0 1.0 -1 47
r 0.100976 2 3 ping 64 ------- 2 1.0 5.0 -1 35
+ 0.100976 3 5 ping 64 ------- 2 1.0 5.0 -1 35
- 0.100976 3 5 ping 64 ------- 2 1.0 5.0 -1 35
r 0.100976 3 2 ping 64 ------- 4 5.0 1.0 -1 34
+ 0.100976 2 1 ping 64 ------- 4 5.0 1.0 -1 34
- 0.100976 2 1 ping 64 ------- 4 5.0 1.0 -1 34
r 0.100992 3 5 ping 64 ------- 2 1.0 5.0 -1 27
r 0.100992 2 1 ping 64 ------- 4 5.0 1.0 -1 26
- 0.101216 2 3 ping 64 ------- 1 0.0 4.0 -1 44
- 0.101216 3 2 ping 64 ------- 3 4.0 0.0 -1 46
r 0.103536 2 3 ping 64 ------- 1 0.0 4.0 -1 36
+ 0.103536 3 4 ping 64 ------- 1 0.0 4.0 -1 36
- 0.103536 3 4 ping 64 ------- 1 0.0 4.0 -1 36
r 0.103536 3 2 ping 64 ------- 3 4.0 0.0 -1 38
+ 0.103536 2 0 ping 64 ------- 3 4.0 0.0 -1 38
- 0.103536 2 0 ping 64 ------- 3 4.0 0.0 -1 38
r 0.103552 3 4 ping 64 ------- 1 0.0 4.0 -1 28
+ 0.103552 4 3 ping 64 ------- 3 4.0 0.0 -1 56
- 0.103552 4 3 ping 64 ------- 3 4.0 0.0 -1 56
r 0.103552 2 0 ping 64 ------- 3 4.0 0.0 -1 30
+ 0.103552 0 2 ping 64 ------- 1 0.0 4.0 -1 57
- 0.103552 0 2 ping 64 ------- 1 0.0 4.0 -1 57
r 0.103568 4 3 ping 64 ------- 3 4.0 0.0 -1 48
+ 0.103568 3 2 ping 64 ------- 3 4.0 0.0 -1 48
r 0.103568 0 2 ping 64 ------- 1 0.0 4.0 -1 49
+ 0.103568 2 3 ping 64 ------- 1 0.0 4.0 -1 49
- 0.103776 2 3 ping 64 ------- 2 1.0 5.0 -1 45
- 0.103776 3 2 ping 64 ------- 4 5.0 1.0 -1 47
r 0.106096 2 3 ping 64 ------- 2 1.0 5.0 -1 37
+ 0.106096 3 5 ping 64 ------- 2 1.0 5.0 -1 37
- 0.106096 3 5 ping 64 ------- 2 1.0 5.0 -1 37
r 0.106096 3 2 ping 64 ------- 4 5.0 1.0 -1 39
+ 0.106096 2 1 ping 64 ------- 4 5.0 1.0 -1 39
- 0.106096 2 1 ping 64 ------- 4 5.0 1.0 -1 39
r 0.106112 3 5 ping 64 ------- 2 1.0 5.0 -1 29
+ 0.106112 5 3 ping 64 ------- 4 5.0 1.0 -1 58
- 0.106112 5 3 ping 64 ------- 4 5.0 1.0 -1 58
r 0.106112 2 1 ping 64 ------- 4 5.0 1.0 -1 31
+ 0.106112 1 2 ping 64 ------- 2 1.0 5.0 -1 59
- 0.106112 1 2 ping 64 ------- 2 1.0 5.0 -1 59
r 0.106128 5 3 ping 64 ------- 4 5.0 1.0 -1 50
+ 0.106128 3 2 ping 64 ------- 4 5.0 1.0 -1 50
r 0.106128 1 2 ping 64 ------- 2 1.0 5.0 -1 51
+ 0.106128 2 3 ping 64 ------- 2 1.0 5.0 -1 51
- 0.106336 2 3 ping 64 ------- 1 0.0 4.0 -1 49
- 0.106336 3 2 ping 64 ------- 3 4.0 0.0 -1 48
r 0.108656 2 3 ping 64 ------- 1 0.0 4.0 -1 41
+ 0.108656 3 4 ping 64 ------- 1 0.0 4.0 -1 41
- 0.108656 3 4 ping 64 ------- 1 0.0 4.0 -1 41
r 0.108656 3 2 ping 64 ------- 3 4.0 0.0 -1 40
+ 0.108656 2 0 ping 64 ------- 3 4.0 0.0 -1 40
- 0.108656 2 0 ping 64 ------- 3 4.0 0.0 -1 40
r 0.108672 3 4 ping 64 ------- 1 0.0 4.0 -1 33
r 0.108672 2 0 ping 64 ------- 3 4.0 0.0 -1 32
- 0.108896 2 3 ping 64 ------- 2 1.0 5.0 -1 51
- 0.108896 3 2 ping 64 ------- 4 5.0 1.0 -1 50
+ 0.11 0 2 ping 64 ------- 1 0.0 4.0 -1 60
- 0.11 0 2 ping 64 ------- 1 0.0 4.0 -1 60
+ 0.11 1 2 ping 64 ------- 2 1.0 5.0 -1 61
- 0.11 1 2 ping 64 ------- 2 1.0 5.0 -1 61
+ 0.11 4 3 ping 64 ------- 3 4.0 0.0 -1 62
- 0.11 4 3 ping 64 ------- 3 4.0 0.0 -1 62
+ 0.11 5 3 ping 64 ------- 4 5.0 1.0 -1 63
- 0.11 5 3 ping 64 ------- 4 5.0 1.0 -1 63
r 0.110256 0 2 ping 64 ------- 1 0.0 4.0 -1 52
+ 0.110256 2 3 ping 64 ------- 1 0.0 4.0 -1 52
r 0.110256 1 2 ping 64 ------- 2 1.0 5.0 -1 53
+ 0.110256 2 3 ping 64 ------- 2 1.0 5.0 -1 53
r 0.110256 4 3 ping 64 ------- 3 4.0 0.0 -1 54
+ 0.110256 3 2 ping 64 ------- 3 4.0 0.0 -1 54
r 0.110256 5 3 ping 64 ------- 4 5.0 1.0 -1 55
+ 0.110256 3 2 ping 64 ------- 4 5.0 1.0 -1 55
r 0.111216 2 3 ping 64 ------- 2 1.0 5.0 -1 43
+ 0.111216 3 5 ping 64 ------- 2 1.0 5.0 -1 43
- 0.111216 3 5 ping 64 ------- 2 1.0 5.0 -1 43
r 0.111216 3 2 ping 64 ------- 4 5.0 1.0 -1 42
+ 0.111216 2 1 ping 64 ------- 4 5.0 1.0 -1 42
- 0.111216 2 1 ping 64 ------- 4 5.0 1.0 -1 42
r 0.111232 3 5 ping 64 ------- 2 1.0 5.0 -1 35
r 0.111232 2 1 ping 64 ------- 4 5.0 1.0 -1 34
- 0.111456 2 3 ping 64 ------- 1 0.0 4.0 -1 52
- 0.111456 3 2 ping 64 ------- 3 4.0 0.0 -1 54
r 0.113776 2 3 ping 64 ------- 1 0.0 4.0 -1 44
+ 0.113776 3 4 ping 64 ------- 1 0.0 4.0 -1 44
- 0.113776 3 4 ping 64 ------- 1 0.0 4.0 -1 44
r 0.113776 3 2 ping 64 ------- 3 4.0 0.0 -1 46
+ 0.113776 2 0 ping 64 ------- 3 4.0 0.0 -1 46
- 0.113776 2 0 ping 64 ------- 3 4.0 0.0 -1 46
r 0.113792 3 4 ping 64 ------- 1 0.0 4.0 -1 36
+ 0.113792 4 3 ping 64 ------- 3 4.0 0.0 -1 64
- 0.113792 4 3 ping 64 ------- 3 4.0 0.0 -1 64
r 0.113792 2 0 ping 64 ------- 3 4.0 0.0 -1 38
+ 0.113792 0 2 ping 64 ------- 1 0.0 4.0 -1 65
- 0.113792 0 2 ping 64 ------- 1 0.0 4.0 -1 65
r 0.113808 4 3 ping 64 ------- 3 4.0 0.0 -1 56
+ 0.113808 3 2 ping 64 ------- 3 4.0 0.0 -1 56
r 0.113808 0 2 ping 64 ------- 1 0.0 4.0 -1 57
+ 0.113808 2 3 ping 64 ------- 1 0.0 4.0 -1 57
- 0.114016 2 3 ping 64 ------- 2 1.0 5.0 -1 53
- 0.114016 3 2 ping 64 ------- 4 5.0 1.0 -1 55
r 0.116336 2 3 ping 64 ------- 2 1.0 5.0 -1 45
+ 0.116336 3 5 ping 64 ------- 2 1.0 5.0 -1 45
- 0.116336 3 5 ping 64 ------- 2 1.0 5.0 -1 45
r 0.116336 3 2 ping 64 ------- 4 5.0 1.0 -1 47
+ 0.116336 2 1 ping 64 ------- 4 5.0 1.0 -1 47
- 0.116336 2 1 ping 64 ------- 4 5.0 1.0 -1 47
r 0.116352 3 5 ping 64 ------- 2 1.0 5.0 -1 37
+ 0.116352 5 3 ping 64 ------- 4 5.0 1.0 -1 66
- 0.116352 5 3 ping 64 ------- 4 5.0 1.0 -1 66
r 0.116352 2 1 ping 64 ------- 4 5.0 1.0 -1 39
+ 0.116352 1 2 ping 64 ------- 2 1.0 5.0 -1 67
- 0.116352 1 2 ping 64 ------- 2 1.0 5.0 -1 67
r 0.116368 5 3 ping 64 ------- 4 5.0 1.0 -1 58
+ 0.116368 3 2 ping 64 ------- 4 5.0 1.0 -1 58
r 0.116368 1 2 ping 64 ------- 2 1.0 5.0 -1 59
+ 0.116368 2 3 ping 64 ------- 2 1.0 5.0 -1 59
- 0.116576 2 3 ping 64 ------- 1 0.0 4.0 -1 57
- 0.116576 3 2 ping 64 ------- 3 4.0 0.0 -1 56
r 0.118896 2 3 ping 64 ------- 1 0.0 4.0 -1 49
+ 0.118896 3 4 ping 64 ------- 1 0.0 4.0 -1 49
- 0.118896 3 4 ping 64 ------- 1 0.0 4.0 -1 49
r 0.118896 3 2 ping 64 ------- 3 4.0 0.0 -1 48
+ 0.118896 2 0 ping 64 ------- 3 4.0 0.0 -1 48
- 0.118896 2 0 ping 64 ------- 3 4.0 0.0 -1 48
r 0.118912 3 4 ping 64 ------- 1 0.0 4.0 -1 41
r 0.118912 2 0 ping 64 ------- 3 4.0 0.0 -1 40
- 0.119136 2 3 ping 64 ------- 2 1.0 5.0 -1 59
- 0.119136 3 2 ping 64 ------- 4 5.0 1.0 -1 58
+ 0.12 0 2 ping 64 ------- 1 0.0 4.0 -1 68
- 0.12 0 2 ping 64 ------- 1 0.0 4.0 -1 68
+ 0.12 1 2 ping 64 ------- 2 1.0 5.0 -1 69
- 0.12 1 2 ping 64 ------- 2 1.0 5.0 -1 69
+ 0.12 4 3 ping 64 ------- 3 4.0 0.0 -1 70
- 0.12 4 3 ping 64 ------- 3 4.0 0.0 -1 70
+ 0.12 5 3 ping 64 ------- 4 5.0 1.0 -1 71
- 0.12 5 3 ping 64 ------- 4 5.0 1.0 -1 71
r 0.120256 0 2 ping 64 ------- 1 0.0 4.0 -1 60
+ 0.120256 2 3 ping 64 ------- 1 0.0 4.0 -1 60
r 0.120256 1 2 ping 64 ------- 2 1.0 5.0 -1 61
+ 0.120256 2 3 ping 64 ------- 2 1.0 5.0 -1 61
r 0.120256 4 3 ping 64 ------- 3 4.0 0.0 -1 62
+ 0.120256 3 2 ping 64 ------- 3 4.0 0.0 -1 62
r 0.120256 5 3 ping 64 ------- 4 5.0 1.0 -1 63
+ 0.120256 3 2 ping 64 ------- 4 5.0 1.0 -1 63
r 0.121456 2 3 ping 64 ------- 2 1.0 5.0 -1 51
+ 0.121456 3 5 ping 64 ------- 2 1.0 5.0 -1 51
- 0.121456 3 5 ping 64 ------- 2 1.0 5.0 -1 51
r 0.121456 3 2 ping 64 ------- 4 5.0 1.0 -1 50
+ 0.121456 2 1 ping 64 ------- 4 5.0 1.0 -1 50
- 0.121456 2 1 ping 64 ------- 4 5.0 1.0 -1 50
r 0.121472 3 5 ping 64 ------- 2 1.0 5.0 -1 43
r 0.121472 2 1 ping 64 ------- 4 5.0 1.0 -1 42
- 0.121696 2 3 ping 64 ------- 1 0.0 4.0 -1 60
- 0.121696 3 2 ping 64 ------- 3 4.0 0.0 -1 62
r 0.124016 2 3 ping 64 ------- 1 0.0 4.0 -1 52
+ 0.124016 3 4 ping 64 ------- 1 0.0 4.0 -1 52
- 0.124016 3 4 ping 64 ------- 1 0.0 4.0 -1 52
r 0.124016 3 2 ping 64 ------- 3 4.0 0.0 -1 54
+ 0.124016 2 0 ping 64 ------- 3 4.0 0.0 -1 54
- 0.124016 2 0 ping 64 ------- 3 4.0 0.0 -1 54
r 0.124032 3 4 ping 64 ------- 1 0.0 4.0 -1 44
+ 0.124032 4 3 ping 64 ------- 3 4.0 0.0 -1 72
- 0.124032 4 3 ping 64 ------- 3 4.0 0.0 -1 72
r 0.124032 2 0 ping 64 ------- 3 4.0 0.0 -1 46
+ 0.124032 0 2 ping 64 ------- 1 0.0 4.0 -1 73
- 0.124032 0 2 ping 64 ------- 1 0.0 4.0 -1 73
r 0.124048 4 3 ping 64 ------- 3 4.0 0.0 -1 64
+ 0.124048 3 2 ping 64 ------- 3 4.0 0.0 -1 64
r 0.124048 0 2 ping 64 ------- 1 0.0 4.0 -1 65
+ 0.124048 2 3 ping 64 ------- 1 0.0 4.0 -1 65
- 0.124256 2 3 ping 64 ------- 2 1.0 5.0 -1 61
- 0.124256 3 2 ping 64 ------- 4 5.0 1.0 -1 63
r 0.126576 2 3 ping 64 ------- 2 1.0 5.0 -1 53
+ 0.126576 3 5 ping 64 ------- 2 1.0 5.0 -1 53
- 0.126576 3 5 ping 64 ------- 2 1.0 5.0 -1 53
r 0.126576 3 2 ping 64 ------- 4 5.0 1.0 -1 55
+ 0.126576 2 1 ping 64 ------- 4 5.0 1.0 -1 55
- 0.126576 2 1 ping 64 ------- 4 5.0 1.0 -1 55
r 0.126592 3 5 ping 64 ------- 2 1.0 5.0 -1 45
+ 0.126592 5 3 ping 64 ------- 4 5.0 1.0 -1 74
- 0.126592 5 3 ping 64 ------- 4 5.0 1.0 -1 74
r 0.126592 2 1 ping 64 ------- 4 5.0 1.0 -1 47
+ 0.126592 1 2 ping 64 ------- 2 1.0 5.0 -1 75
- 0.126592 1 2 ping 64 ------- 2 1.0 5.0 -1 75
r 0.126608 5 3 ping 64 ------- 4 5.0 1.0 -1 66
+ 0.126608 3 2 ping 64 ------- 4 5.0 1.0 -1 66
r 0.126608 1 2 ping 64 ------- 2 1.0 5.0 -1 67
+ 0.126608 2 3 ping 64 ------- 2 1.0 5.0 -1 67
- 0.126816 2 3 ping 64 ------- 1 0.0 4.0 -1 65
- 0.126816 3 2 ping 64 ------- 3 4.0 0.0 -1 64
r 0.129136 2 3 ping 64 ------- 1 0.0 4.0 -1 57
+ 0.129136 3 4 ping 64 ------- 1 0.0 4.0 -1 57
- 0.129136 3 4 ping 64 ------- 1 0.0 4.0 -1 57
r 0.129136 3 2 ping 64 ------- 3 4.0 0.0 -1 56
+ 0.129136 2 0 ping 64 ------- 3 4.0 0.0 -1 56
- 0.129136 2 0 ping 64 ------- 3 4.0 0.0 -1 56
r 0.129152 3 4 ping 64 ------- 1 0.0 4.0 -1 49
r 0.129152 2 0 ping 64 ------- 3 4.0 0.0 -1 48
- 0.129376 2 3 ping 64 ------- 2 1.0 5.0 -1 67
- 0.129376 3 2 ping 64 ------- 4 5.0 1.0 -1 66
+ 0.13 0 2 ping 64 ------- 1 0.0 4.0 -1 76
- 0.13 0 2 ping 64 ------- 1 0.0 4.0 -1 76
+ 0.13 1 2 ping 64 ------- 2 1.0 5.0 -1 77
- 0.13 1 2 ping 64 ------- 2 1.0 5.0 -1 77
+ 0.13 4 3 ping 64 ------- 3 4.0 0.0 -1 78
- 0.13 4 3 ping 64 ------- 3 4.0 0.0 -1 78
+ 0.13 5 3 ping 64 ------- 4 5.0 1.0 -1 79
- 0.13 5 3 ping 64 ------- 4 5.0 1.0 -1 79
r 0.130256 0 2 ping 64 ------- 1 0.0 4.0 -1 68
+ 0.130256 2 3 ping 64 ------- 1 0.0 4.0 -1 68
r 0.130256 1 2 ping 64 ------- 2 1.0 5.0 -1 69
+ 0.130256 2 3 ping 64 ------- 2 1.0 5.0 -1 69
r 0.130256 4 3 ping 64 ------- 3 4.0 0.0 -1 70
+ 0.130256 3 2 ping 64 ------- 3 4.0 0.0 -1 70
r 0.130256 5 3 ping 64 ------- 4 5.0 1.0 -1 71
+ 0.130256 3 2 ping 64 ------- 4 5.0 1.0 -1 71
r 0.131696 2 3 ping 64 ------- 2 1.0 5.0 -1 59
+ 0.131696 3 5 ping 64 ------- 2 1.0 5.0 -1 59
- 0.131696 3 5 ping 64 ------- 2 1.0 5.0 -1 59
r 0.131696 3 2 ping 64 ------- 4 5.0 1.0 -1 58
+ 0.131696 2 1 ping 64 ------- 4 5.0 1.0 -1 58
- 0.131696 2 1 ping 64 ------- 4 5.0 1.0 -1 58
r 0.131712 3 5 ping 64 ------- 2 1.0 5.0 -1 51
r 0.131712 2 1 ping 64 ------- 4 5.0 1.0 -1 50
- 0.131936 2 3 ping 64 ------- 1 0.0 4.0 -1 68
- 0.131936 3 2 ping 64 ------- 3 4.0 0.0 -1 70
r 0.134256 2 3 ping 64 ------- 1 0.0 4.0 -1 60
+ 0.134256 3 4 ping 64 ------- 1 0.0 4.0 -1 60
- 0.134256 3 4 ping 64 ------- 1 0.0 4.0 -1 60
r 0.134256 3 2 ping 64 ------- 3 4.0 0.0 -1 62
+ 0.134256 2 0 ping 64 ------- 3 4.0 0.0 -1 62
- 0.134256 2 0 ping 64 ------- 3 4.0 0.0 -1 62
r 0.134272 3 4 ping 64 ------- 1 0.0 4.0 -1 52
+ 0.134272 4 3 ping 64 ------- 3 4.0 0.0 -1 80
- 0.134272 4 3 ping 64 ------- 3 4.0 0.0 -1 80
r 0.134272 2 0 ping 64 ------- 3 4.0 0.0 -1 54
+ 0.134272 0 2 ping 64 ------- 1 0.0 4.0 -1 81
- 0.134272 0 2 ping 64 ------- 1 0.0 4.0 -1 81
r 0.134288 4 3 ping 64 ------- 3 4.0 0.0 -1 72
+ 0.134288 3 2 ping 64 ------- 3 4.0 0.0 -1 72
r 0.134288 0 2 ping 64 ------- 1 0.0 4.0 -1 73
+ 0.134288 2 3 ping 64 ------- 1 0.0 4.0 -1 73
- 0.134496 2 3 ping 64 ------- 2 1.0 5.0 -1 69
- 0.134496 3 2 ping 64 ------- 4 5.0 1.0 -1 71
r 0.136816 2 3 ping 64 ------- 2 1.0 5.0 -1 61
+ 0.136816 3 5 ping 64 ------- 2 1.0 5.0 -1 61
- 0.136816 3 5 ping 64 ------- 2 1.0 5.0 -1 61
r 0.136816 3 2 ping 64 ------- 4 5.0 1.0 -1 63
+ 0.136816 2 1 ping 64 ------- 4 5.0 1.0 -1 63
- 0.136816 2 1 ping 64 ------- 4 5.0 1.0 -1 63
r 0.136832 3 5 ping 64 ------- 2 1.0 5.0 -1 53
+ 0.136832 5 3 ping 64 ------- 4 5.0 1.0 -1 82
- 0.136832 5 3 ping 64 ------- 4 5.0 1.0 -1 82
r 0.136832 2 1 ping 64 ------- 4 5.0 1.0 -1 55
+ 0.136832 1 2 ping 64 ------- 2 1.0 5.0 -1 83
- 0.136832 1 2 ping 64 ------- 2 1.0 5.0 -1 83
r 0.136848 5 3 ping 64 ------- 4 5.0 1.0 -1 74
+ 0.136848 3 2 ping 64 ------- 4 5.0 1.0 -1 74
r 0.136848 1 2 ping 64 ------- 2 1.0 5.0 -1 75
+ 0.136848 2 3 ping 64 ------- 2 1.0 5.0 -1 75
- 0.137056 2 3 ping 64 ------- 1 0.0 4.0 -1 73
- 0.137056 3 2 ping 64 ------- 3 4.0 0.0 -1 72
r 0.139376 2 3 ping 64 ------- 1 0.0 4.0 -1 65
+ 0.139376 3 4 ping 64 ------- 1 0.0 4.0 -1 65
- 0.139376 3 4 ping 64 ------- 1 0.0 4.0 -1 65
r 0.139376 3 2 ping 64 ------- 3 4.0 0.0 -1 64
+ 0.139376 2 0 ping 64 ------- 3 4.0 0.0 -1 64
- 0.139376 2 0 ping 64 ------- 3 4.0 0.0 -1 64