+ 0.5 0 1 tcp 40 ------- 0 0.0 4.0 0 0
- 0.5 0 1 tcp 40 ------- 0 0.0 4.0 0 0
r 0.513556 0 1 tcp 40 ------- 0 0.0 4.0 0 0
+ 0.513556 1 2 tcp 40 ------- 0 0.0 4.0 0 0
- 0.513556 1 2 tcp 40 ------- 0 0.0 4.0 0 0
r 1.016756 1 2 tcp 40 ------- 0 0.0 4.0 0 0
+ 1.016756 2 3 tcp 40 ------- 0 0.0 4.0 0 0
- 1.016756 2 3 tcp 40 ------- 0 0.0 4.0 0 0
r 1.519956 2 3 tcp 40 ------- 0 0.0 4.0 0 0
+ 1.519956 3 4 tcp 40 ------- 0 0.0 4.0 0 0
- 1.519956 3 4 tcp 40 ------- 0 0.0 4.0 0 0
r 1.573511 3 4 tcp 40 ------- 0 0.0 4.0 0 0
+ 1.573511 4 3 ack 40 ------- 0 4.0 0.0 0 1
- 1.573511 4 3 ack 40 ------- 0 4.0 0.0 0 1
r 1.627067 4 3 ack 40 ------- 0 4.0 0.0 0 1
+ 1.627067 3 2 ack 40 ------- 0 4.0 0.0 0 1
- 1.627067 3 2 ack 40 ------- 0 4.0 0.0 0 1
r 2.130267 3 2 ack 40 ------- 0 4.0 0.0 0 1
+ 2.130267 2 1 ack 40 ------- 0 4.0 0.0 0 1
- 2.130267 2 1 ack 40 ------- 0 4.0 0.0 0 1
r 2.633467 2 1 ack 40 ------- 0 4.0 0.0 0 1
+ 2.633467 1 0 ack 40 ------- 0 4.0 0.0 0 1
- 2.633467 1 0 ack 40 ------- 0 4.0 0.0 0 1
r 2.647022 1 0 ack 40 ------- 0 4.0 0.0 0 1
+ 2.647022 0 1 tcp 1040 ------- 0 0.0 4.0 1 2
- 2.647022 0 1 tcp 1040 ------- 0 0.0 4.0 1 2
+ 2.647022 0 1 tcp 1040 ------- 0 0.0 4.0 2 3
- 2.739467 0 1 tcp 1040 ------- 0 0.0 4.0 2 3
r 2.749467 0 1 tcp 1040 ------- 0 0.0 4.0 1 2
+ 2.749467 1 2 tcp 1040 ------- 0 0.0 4.0 1 2
- 2.749467 1 2 tcp 1040 ------- 0 0.0 4.0 1 2
r 2.841911 0 1 tcp 1040 ------- 0 0.0 4.0 2 3
+ 2.841911 1 2 tcp 1040 ------- 0 0.0 4.0 2 3
- 2.841911 1 2 tcp 1040 ------- 0 0.0 4.0 2 3
r 3.332667 1 2 tcp 1040 ------- 0 0.0 4.0 1 2
+ 3.332667 2 3 tcp 1040 ------- 0 0.0 4.0 1 2
- 3.332667 2 3 tcp 1040 ------- 0 0.0 4.0 1 2
r 3.425111 1 2 tcp 1040 ------- 0 0.0 4.0 2 3
+ 3.425111 2 3 tcp 1040 ------- 0 0.0 4.0 2 3
- 3.425111 2 3 tcp 1040 ------- 0 0.0 4.0 2 3
r 3.915867 2 3 tcp 1040 ------- 0 0.0 4.0 1 2
+ 3.915867 3 4 tcp 1040 ------- 0 0.0 4.0 1 2
- 3.915867 3 4 tcp 1040 ------- 0 0.0 4.0 1 2
r 4.008311 2 3 tcp 1040 ------- 0 0.0 4.0 2 3
+ 4.008311 3 4 tcp 1040 ------- 0 0.0 4.0 2 3
- 4.008311 3 4 tcp 1040 ------- 0 0.0 4.0 2 3
r 4.058311 3 4 tcp 1040 ------- 0 0.0 4.0 1 2
+ 4.058311 4 3 ack 40 ------- 0 4.0 0.0 1 4
- 4.058311 4 3 ack 40 ------- 0 4.0 0.0 1 4
r 4.111867 4 3 ack 40 ------- 0 4.0 0.0 1 4
+ 4.111867 3 2 ack 40 ------- 0 4.0 0.0 1 4
- 4.111867 3 2 ack 40 ------- 0 4.0 0.0 1 4
r 4.150756 3 4 tcp 1040 ------- 0 0.0 4.0 2 3
+ 4.150756 4 3 ack 40 ------- 0 4.0 0.0 2 5
- 4.150756 4 3 ack 40 ------- 0 4.0 0.0 2 5
r 4.204311 4 3 ack 40 ------- 0 4.0 0.0 2 5
+ 4.204311 3 2 ack 40 ------- 0 4.0 0.0 2 5
- 4.204311 3 2 ack 40 ------- 0 4.0 0.0 2 5
r 4.615067 3 2 ack 40 ------- 0 4.0 0.0 1 4
+ 4.615067 2 1 ack 40 ------- 0 4.0 0.0 1 4
- 4.615067 2 1 ack 40 ------- 0 4.0 0.0 1 4
r 4.707511 3 2 ack 40 ------- 0 4.0 0.0 2 5
+ 4.707511 2 1 ack 40 ------- 0 4.0 0.0 2 5
- 4.707511 2 1 ack 40 ------- 0 4.0 0.0 2 5
r 5.118267 2 1 ack 40 ------- 0 4.0 0.0 1 4
+ 5.118267 1 0 ack 40 ------- 0 4.0 0.0 1 4
- 5.118267 1 0 ack 40 ------- 0 4.0 0.0 1 4
r 5.131822 1 0 ack 40 ------- 0 4.0 0.0 1 4
+ 5.131822 0 1 tcp 1040 ------- 0 0.0 4.0 3 6
- 5.131822 0 1 tcp 1040 ------- 0 0.0 4.0 3 6
+ 5.131822 0 1 tcp 1040 ------- 0 0.0 4.0 4 7
r 5.210711 2 1 ack 40 ------- 0 4.0 0.0 2 5
+ 5.210711 1 0 ack 40 ------- 0 4.0 0.0 2 5
- 5.210711 1 0 ack 40 ------- 0 4.0 0.0 2 5
- 5.224267 0 1 tcp 1040 ------- 0 0.0 4.0 4 7
r 5.224267 1 0 ack 40 ------- 0 4.0 0.0 2 5
+ 5.224267 0 1 tcp 1040 ------- 0 0.0 4.0 5 8
+ 5.224267 0 1 tcp 1040 ------- 0 0.0 4.0 6 9
r 5.234267 0 1 tcp 1040 ------- 0 0.0 4.0 3 6
+ 5.234267 1 2 tcp 1040 ------- 0 0.0 4.0 3 6
- 5.234267 1 2 tcp 1040 ------- 0 0.0 4.0 3 6
- 5.316711 0 1 tcp 1040 ------- 0 0.0 4.0 5 8
r 5.326711 0 1 tcp 1040 ------- 0 0.0 4.0 4 7
+ 5.326711 1 2 tcp 1040 ------- 0 0.0 4.0 4 7
- 5.326711 1 2 tcp 1040 ------- 0 0.0 4.0 4 7
- 5.409156 0 1 tcp 1040 ------- 0 0.0 4.0 6 9
r 5.419156 0 1 tcp 1040 ------- 0 0.0 4.0 5 8
+ 5.419156 1 2 tcp 1040 ------- 0 0.0 4.0 5 8
- 5.419156 1 2 tcp 1040 ------- 0 0.0 4.0 5 8
r 5.5116 0 1 tcp 1040 ------- 0 0.0 4.0 6 9
+ 5.5116 1 2 tcp 1040 ------- 0 0.0 4.0 6 9
- 5.5116 1 2 tcp 1040 ------- 0 0.0 4.0 6 9
r 5.817467 1 2 tcp 1040 ------- 0 0.0 4.0 3 6
+ 5.817467 2 3 tcp 1040 ------- 0 0.0 4.0 3 6
- 5.817467 2 3 tcp 1040 ------- 0 0.0 4.0 3 6
r 5.909911 1 2 tcp 1040 ------- 0 0.0 4.0 4 7
+ 5.909911 2 3 tcp 1040 ------- 0 0.0 4.0 4 7
- 5.909911 2 3 tcp 1040 ------- 0 0.0 4.0 4 7
r 6.002356 1 2 tcp 1040 ------- 0 0.0 4.0 5 8
+ 6.002356 2 3 tcp 1040 ------- 0 0.0 4.0 5 8
- 6.002356 2 3 tcp 1040 ------- 0 0.0 4.0 5 8
r 6.0948 1 2 tcp 1040 ------- 0 0.0 4.0 6 9
+ 6.0948 2 3 tcp 1040 ------- 0 0.0 4.0 6 9
- 6.0948 2 3 tcp 1040 ------- 0 0.0 4.0 6 9
r 6.400667 2 3 tcp 1040 ------- 0 0.0 4.0 3 6
+ 6.400667 3 4 tcp 1040 ------- 0 0.0 4.0 3 6
- 6.400667 3 4 tcp 1040 ------- 0 0.0 4.0 3 6
r 6.493111 2 3 tcp 1040 ------- 0 0.0 4.0 4 7
+ 6.493111 3 4 tcp 1040 ------- 0 0.0 4.0 4 7
- 6.493111 3 4 tcp 1040 ------- 0 0.0 4.0 4 7
r 6.543111 3 4 tcp 1040 ------- 0 0.0 4.0 3 6
+ 6.543111 4 3 ack 40 ------- 0 4.0 0.0 3 10
- 6.543111 4 3 ack 40 ------- 0 4.0 0.0 3 10
r 6.585556 2 3 tcp 1040 ------- 0 0.0 4.0 5 8
+ 6.585556 3 4 tcp 1040 ------- 0 0.0 4.0 5 8
- 6.585556 3 4 tcp 1040 ------- 0 0.0 4.0 5 8
r 6.596667 4 3 ack 40 ------- 0 4.0 0.0 3 10
+ 6.596667 3 2 ack 40 ------- 0 4.0 0.0 3 10
- 6.596667 3 2 ack 40 ------- 0 4.0 0.0 3 10
r 6.635556 3 4 tcp 1040 ------- 0 0.0 4.0 4 7
+ 6.635556 4 3 ack 40 ------- 0 4.0 0.0 4 11
- 6.635556 4 3 ack 40 ------- 0 4.0 0.0 4 11
r 6.678 2 3 tcp 1040 ------- 0 0.0 4.0 6 9
+ 6.678 3 4 tcp 1040 ------- 0 0.0 4.0 6 9
- 6.678 3 4 tcp 1040 ------- 0 0.0 4.0 6 9
r 6.689111 4 3 ack 40 ------- 0 4.0 0.0 4 11
+ 6.689111 3 2 ack 40 ------- 0 4.0 0.0 4 11
- 6.689111 3 2 ack 40 ------- 0 4.0 0.0 4 11
r 6.728 3 4 tcp 1040 ------- 0 0.0 4.0 5 8
+ 6.728 4 3 ack 40 ------- 0 4.0 0.0 5 12
- 6.728 4 3 ack 40 ------- 0 4.0 0.0 5 12
r 6.781556 4 3 ack 40 ------- 0 4.0 0.0 5 12
+ 6.781556 3 2 ack 40 ------- 0 4.0 0.0 5 12
- 6.781556 3 2 ack 40 ------- 0 4.0 0.0 5 12
r 6.820444 3 4 tcp 1040 ------- 0 0.0 4.0 6 9
+ 6.820444 4 3 ack 40 ------- 0 4.0 0.0 6 13
- 6.820444 4 3 ack 40 ------- 0 4.0 0.0 6 13
r 6.874 4 3 ack 40 ------- 0 4.0 0.0 6 13
+ 6.874 3 2 ack 40 ------- 0 4.0 0.0 6 13
- 6.874 3 2 ack 40 ------- 0 4.0 0.0 6 13
r 7.099867 3 2 ack 40 ------- 0 4.0 0.0 3 10
+ 7.099867 2 1 ack 40 ------- 0 4.0 0.0 3 10
- 7.099867 2 1 ack 40 ------- 0 4.0 0.0 3 10
r 7.192311 3 2 ack 40 ------- 0 4.0 0.0 4 11
+ 7.192311 2 1 ack 40 ------- 0 4.0 0.0 4 11
- 7.192311 2 1 ack 40 ------- 0 4.0 0.0 4 11
r 7.284756 3 2 ack 40 ------- 0 4.0 0.0 5 12
+ 7.284756 2 1 ack 40 ------- 0 4.0 0.0 5 12
- 7.284756 2 1 ack 40 ------- 0 4.0 0.0 5 12
r 7.3772 3 2 ack 40 ------- 0 4.0 0.0 6 13
+ 7.3772 2 1 ack 40 ------- 0 4.0 0.0 6 13
- 7.3772 2 1 ack 40 ------- 0 4.0 0.0 6 13
r 7.603067 2 1 ack 40 ------- 0 4.0 0.0 3 10
+ 7.603067 1 0 ack 40 ------- 0 4.0 0.0 3 10
- 7.603067 1 0 ack 40 ------- 0 4.0 0.0 3 10
r 7.616622 1 0 ack 40 ------- 0 4.0 0.0 3 10
+ 7.616622 0 1 tcp 1040 ------- 0 0.0 4.0 7 14
- 7.616622 0 1 tcp 1040 ------- 0 0.0 4.0 7 14
+ 7.616622 0 1 tcp 1040 ------- 0 0.0 4.0 8 15
r 7.695511 2 1 ack 40 ------- 0 4.0 0.0 4 11
+ 7.695511 1 0 ack 40 ------- 0 4.0 0.0 4 11
- 7.695511 1 0 ack 40 ------- 0 4.0 0.0 4 11
- 7.709067 0 1 tcp 1040 ------- 0 0.0 4.0 8 15
r 7.709067 1 0 ack 40 ------- 0 4.0 0.0 4 11
+ 7.709067 0 1 tcp 1040 ------- 0 0.0 4.0 9 16
+ 7.709067 0 1 tcp 1040 ------- 0 0.0 4.0 10 17
r 7.719067 0 1 tcp 1040 ------- 0 0.0 4.0 7 14
+ 7.719067 1 2 tcp 1040 ------- 0 0.0 4.0 7 14
- 7.719067 1 2 tcp 1040 ------- 0 0.0 4.0 7 14
r 7.787956 2 1 ack 40 ------- 0 4.0 0.0 5 12
+ 7.787956 1 0 ack 40 ------- 0 4.0 0.0 5 12
- 7.787956 1 0 ack 40 ------- 0 4.0 0.0 5 12
- 7.801511 0 1 tcp 1040 ------- 0 0.0 4.0 9 16
r 7.801511 1 0 ack 40 ------- 0 4.0 0.0 5 12
+ 7.801511 0 1 tcp 1040 ------- 0 0.0 4.0 11 18
+ 7.801511 0 1 tcp 1040 ------- 0 0.0 4.0 12 19
r 7.811511 0 1 tcp 1040 ------- 0 0.0 4.0 8 15
+ 7.811511 1 2 tcp 1040 ------- 0 0.0 4.0 8 15
- 7.811511 1 2 tcp 1040 ------- 0 0.0 4.0 8 15
r 7.8804 2 1 ack 40 ------- 0 4.0 0.0 6 13
+ 7.8804 1 0 ack 40 ------- 0 4.0 0.0 6 13
- 7.8804 1 0 ack 40 ------- 0 4.0 0.0 6 13
- 7.893956 0 1 tcp 1040 ------- 0 0.0 4.0 10 17
r 7.893956 1 0 ack 40 ------- 0 4.0 0.0 6 13
+ 7.893956 0 1 tcp 1040 ------- 0 0.0 4.0 13 20
+ 7.893956 0 1 tcp 1040 ------- 0 0.0 4.0 14 21
r 7.903956 0 1 tcp 1040 ------- 0 0.0 4.0 9 16
+ 7.903956 1 2 tcp 1040 ------- 0 0.0 4.0 9 16
- 7.903956 1 2 tcp 1040 ------- 0 0.0 4.0 9 16
- 7.9864 0 1 tcp 1040 ------- 0 0.0 4.0 11 18
r 7.9964 0 1 tcp 1040 ------- 0 0.0 4.0 10 17
+ 7.9964 1 2 tcp 1040 ------- 0 0.0 4.0 10 17
- 7.9964 1 2 tcp 1040 ------- 0 0.0 4.0 10 17
- 8.078844 0 1 tcp 1040 ------- 0 0.0 4.0 12 19
r 8.088844 0 1 tcp 1040 ------- 0 0.0 4.0 11 18
+ 8.088844 1 2 tcp 1040 ------- 0 0.0 4.0 11 18
- 8.088844 1 2 tcp 1040 ------- 0 0.0 4.0 11 18
- 8.171289 0 1 tcp 1040 ------- 0 0.0 4.0 13 20
r 8.181289 0 1 tcp 1040 ------- 0 0.0 4.0 12 19
+ 8.181289 1 2 tcp 1040 ------- 0 0.0 4.0 12 19
- 8.181289 1 2 tcp 1040 ------- 0 0.0 4.0 12 19
- 8.263733 0 1 tcp 1040 ------- 0 0.0 4.0 14 21
r 8.273733 0 1 tcp 1040 ------- 0 0.0 4.0 13 20
+ 8.273733 1 2 tcp 1040 ------- 0 0.0 4.0 13 20
- 8.273733 1 2 tcp 1040 ------- 0 0.0 4.0 13 20
r 8.302267 1 2 tcp 1040 ------- 0 0.0 4.0 7 14
+ 8.302267 2 3 tcp 1040 ------- 0 0.0 4.0 7 14
- 8.302267 2 3 tcp 1040 ------- 0 0.0 4.0 7 14
r 8.366178 0 1 tcp 1040 ------- 0 0.0 4.0 14 21
+ 8.366178 1 2 tcp 1040 ------- 0 0.0 4.0 14 21
- 8.366178 1 2 tcp 1040 ------- 0 0.0 4.0 14 21
r 8.394711 1 2 tcp 1040 ------- 0 0.0 4.0 8 15
+ 8.394711 2 3 tcp 1040 ------- 0 0.0 4.0 8 15
- 8.394711 2 3 tcp 1040 ------- 0 0.0 4.0 8 15
r 8.487156 1 2 tcp 1040 ------- 0 0.0 4.0 9 16
+ 8.487156 2 3 tcp 1040 ------- 0 0.0 4.0 9 16
- 8.487156 2 3 tcp 1040 ------- 0 0.0 4.0 9 16
r 8.5796 1 2 tcp 1040 ------- 0 0.0 4.0 10 17
+ 8.5796 2 3 tcp 1040 ------- 0 0.0 4.0 10 17
- 8.5796 2 3 tcp 1040 ------- 0 0.0 4.0 10 17
r 8.672044 1 2 tcp 1040 ------- 0 0.0 4.0 11 18
+ 8.672044 2 3 tcp 1040 ------- 0 0.0 4.0 11 18
- 8.672044 2 3 tcp 1040 ------- 0 0.0 4.0 11 18
r 8.764489 1 2 tcp 1040 ------- 0 0.0 4.0 12 19
+ 8.764489 2 3 tcp 1040 ------- 0 0.0 4.0 12 19
- 8.764489 2 3 tcp 1040 ------- 0 0.0 4.0 12 19
r 8.856933 1 2 tcp 1040 ------- 0 0.0 4.0 13 20
+ 8.856933 2 3 tcp 1040 ------- 0 0.0 4.0 13 20
- 8.856933 2 3 tcp 1040 ------- 0 0.0 4.0 13 20
r 8.885467 2 3 tcp 1040 ------- 0 0.0 4.0 7 14
+ 8.885467 3 4 tcp 1040 ------- 0 0.0 4.0 7 14
- 8.885467 3 4 tcp 1040 ------- 0 0.0 4.0 7 14
r 8.949378 1 2 tcp 1040 ------- 0 0.0 4.0 14 21
+ 8.949378 2 3 tcp 1040 ------- 0 0.0 4.0 14 21
- 8.949378 2 3 tcp 1040 ------- 0 0.0 4.0 14 21
r 8.977911 2 3 tcp 1040 ------- 0 0.0 4.0 8 15
+ 8.977911 3 4 tcp 1040 ------- 0 0.0 4.0 8 15
- 8.977911 3 4 tcp 1040 ------- 0 0.0 4.0 8 15
r 9.027911 3 4 tcp 1040 ------- 0 0.0 4.0 7 14
+ 9.027911 4 3 ack 40 ------- 0 4.0 0.0 7 22
- 9.027911 4 3 ack 40 ------- 0 4.0 0.0 7 22
r 9.070356 2 3 tcp 1040 ------- 0 0.0 4.0 9 16
+ 9.070356 3 4 tcp 1040 ------- 0 0.0 4.0 9 16
- 9.070356 3 4 tcp 1040 ------- 0 0.0 4.0 9 16
r 9.081467 4 3 ack 40 ------- 0 4.0 0.0 7 22
+ 9.081467 3 2 ack 40 ------- 0 4.0 0.0 7 22
- 9.081467 3 2 ack 40 ------- 0 4.0 0.0 7 22
r 9.120356 3 4 tcp 1040 ------- 0 0.0 4.0 8 15
+ 9.120356 4 3 ack 40 ------- 0 4.0 0.0 8 23
- 9.120356 4 3 ack 40 ------- 0 4.0 0.0 8 23
r 9.1628 2 3 tcp 1040 ------- 0 0.0 4.0 10 17
+ 9.1628 3 4 tcp 1040 ------- 0 0.0 4.0 10 17
- 9.1628 3 4 tcp 1040 ------- 0 0.0 4.0 10 17
r 9.173911 4 3 ack 40 ------- 0 4.0 0.0 8 23
+ 9.173911 3 2 ack 40 ------- 0 4.0 0.0 8 23
- 9.173911 3 2 ack 40 ------- 0 4.0 0.0 8 23
r 9.2128 3 4 tcp 1040 ------- 0 0.0 4.0 9 16
+ 9.2128 4 3 ack 40 ------- 0 4.0 0.0 9 24
- 9.2128 4 3 ack 40 ------- 0 4.0 0.0 9 24
r 9.255244 2 3 tcp 1040 ------- 0 0.0 4.0 11 18
+ 9.255244 3 4 tcp 1040 ------- 0 0.0 4.0 11 18
- 9.255244 3 4 tcp 1040 ------- 0 0.0 4.0 11 18
r 9.266356 4 3 ack 40 ------- 0 4.0 0.0 9 24
+ 9.266356 3 2 ack 40 ------- 0 4.0 0.0 9 24
- 9.266356 3 2 ack 40 ------- 0 4.0 0.0 9 24
r 9.305244 3 4 tcp 1040 ------- 0 0.0 4.0 10 17
+ 9.305244 4 3 ack 40 ------- 0 4.0 0.0 10 25
- 9.305244 4 3 ack 40 ------- 0 4.0 0.0 10 25
r 9.347689 2 3 tcp 1040 ------- 0 0.0 4.0 12 19
+ 9.347689 3 4 tcp 1040 ------- 0 0.0 4.0 12 19
- 9.347689 3 4 tcp 1040 ------- 0 0.0 4.0 12 19
r 9.3588 4 3 ack 40 ------- 0 4.0 0.0 10 25
+ 9.3588 3 2 ack 40 ------- 0 4.0 0.0 10 25
- 9.3588 3 2 ack 40 ------- 0 4.0 0.0 10 25
r 9.397689 3 4 tcp 1040 ------- 0 0.0 4.0 11 18
+ 9.397689 4 3 ack 40 ------- 0 4.0 0.0 11 26
- 9.397689 4 3 ack 40 ------- 0 4.0 0.0 11 26
r 9.440133 2 3 tcp 1040 ------- 0 0.0 4.0 13 20
+ 9.440133 3 4 tcp 1040 ------- 0 0.0 4.0 13 20
- 9.440133 3 4 tcp 1040 ------- 0 0.0 4.0 13 20
r 9.451244 4 3 ack 40 ------- 0 4.0 0.0 11 26
+ 9.451244 3 2 ack 40 ------- 0 4.0 0.0 11 26
- 9.451244 3 2 ack 40 ------- 0 4.0 0.0 11 26
r 9.490133 3 4 tcp 1040 ------- 0 0.0 4.0 12 19
+ 9.490133 4 3 ack 40 ------- 0 4.0 0.0 12 27
- 9.490133 4 3 ack 40 ------- 0 4.0 0.0 12 27
r 9.532578 2 3 tcp 1040 ------- 0 0.0 4.0 14 21
+ 9.532578 3 4 tcp 1040 ------- 0 0.0 4.0 14 21
- 9.532578 3 4 tcp 1040 ------- 0 0.0 4.0 14 21
r 9.543689 4 3 ack 40 ------- 0 4.0 0.0 12 27
+ 9.543689 3 2 ack 40 ------- 0 4.0 0.0 12 27
- 9.543689 3 2 ack 40 ------- 0 4.0 0.0 12 27
r 9.582578 3 4 tcp 1040 ------- 0 0.0 4.0 13 20
+ 9.582578 4 3 ack 40 ------- 0 4.0 0.0 13 28
- 9.582578 4 3 ack 40 ------- 0 4.0 0.0 13 28
r 9.584667 3 2 ack 40 ------- 0 4.0 0.0 7 22
+ 9.584667 2 1 ack 40 ------- 0 4.0 0.0 7 22
- 9.584667 2 1 ack 40 ------- 0 4.0 0.0 7 22
r 9.636133 4 3 ack 40 ------- 0 4.0 0.0 13 28
+ 9.636133 3 2 ack 40 ------- 0 4.0 0.0 13 28
- 9.636133 3 2 ack 40 ------- 0 4.0 0.0 13 28
r 9.675022 3 4 tcp 1040 ------- 0 0.0 4.0 14 21
+ 9.675022 4 3 ack 40 ------- 0 4.0 0.0 14 29
- 9.675022 4 3 ack 40 ------- 0 4.0 0.0 14 29
r 9.677111 3 2 ack 40 ------- 0 4.0 0.0 8 23
+ 9.677111 2 1 ack 40 ------- 0 4.0 0.0 8 23
- 9.677111 2 1 ack 40 ------- 0 4.0 0.0 8 23
r 9.728578 4 3 ack 40 ------- 0 4.0 0.0 14 29
+ 9.728578 3 2 ack 40 ------- 0 4.0 0.0 14 29
- 9.728578 3 2 ack 40 ------- 0 4.0 0.0 14 29
r 9.769556 3 2 ack 40 ------- 0 4.0 0.0 9 24
+ 9.769556 2 1 ack 40 ------- 0 4.0 0.0 9 24
- 9.769556 2 1 ack 40 ------- 0 4.0 0.0 9 24
r 9.862 3 2 ack 40 ------- 0 4.0 0.0 10 25
+ 9.862 2 1 ack 40 ------- 0 4.0 0.0 10 25
- 9.862 2 1 ack 40 ------- 0 4.0 0.0 10 25
r 9.954444 3 2 ack 40 ------- 0 4.0 0.0 11 26
+ 9.954444 2 1 ack 40 ------- 0 4.0 0.0 11 26
- 9.954444 2 1 ack 40 ------- 0 4.0 0.0 11 26
r 10.046889 3 2 ack 40 ------- 0 4.0 0.0 12 27
+ 10.046889 2 1 ack 40 ------- 0 4.0 0.0 12 27
- 10.046889 2 1 ack 40 ------- 0 4.0 0.0 12 27
r 10.087867 2 1 ack 40 ------- 0 4.0 0.0 7 22
+ 10.087867 1 0 ack 40 ------- 0 4.0 0.0 7 22
- 10.087867 1 0 ack 40 ------- 0 4.0 0.0 7 22
r 10.101422 1 0 ack 40 ------- 0 4.0 0.0 7 22
+ 10.101422 0 1 tcp 1040 ------- 0 0.0 4.0 15 30
- 10.101422 0 1 tcp 1040 ------- 0 0.0 4.0 15 30
+ 10.101422 0 1 tcp 1040 ------- 0 0.0 4.0 16 31
r 10.139333 3 2 ack 40 ------- 0 4.0 0.0 13 28
+ 10.139333 2 1 ack 40 ------- 0 4.0 0.0 13 28
- 10.139333 2 1 ack 40 ------- 0 4.0 0.0 13 28
r 10.180311 2 1 ack 40 ------- 0 4.0 0.0 8 23
+ 10.180311 1 0 ack 40 ------- 0 4.0 0.0 8 23
- 10.180311 1 0 ack 40 ------- 0 4.0 0.0 8 23
- 10.193867 0 1 tcp 1040 ------- 0 0.0 4.0 16 31
r 10.193867 1 0 ack 40 ------- 0 4.0 0.0 8 23
+ 10.193867 0 1 tcp 1040 ------- 0 0.0 4.0 17 32
+ 10.193867 0 1 tcp 1040 ------- 0 0.0 4.0 18 33
r 10.203867 0 1 tcp 1040 ------- 0 0.0 4.0 15 30
+ 10.203867 1 2 tcp 1040 ------- 0 0.0 4.0 15 30
- 10.203867 1 2 tcp 1040 ------- 0 0.0 4.0 15 30
r 10.231778 3 2 ack 40 ------- 0 4.0 0.0 14 29
+ 10.231778 2 1 ack 40 ------- 0 4.0 0.0 14 29
- 10.231778 2 1 ack 40 ------- 0 4.0 0.0 14 29
r 10.272756 2 1 ack 40 ------- 0 4.0 0.0 9 24
+ 10.272756 1 0 ack 40 ------- 0 4.0 0.0 9 24
- 10.272756 1 0 ack 40 ------- 0 4.0 0.0 9 24
- 10.286311 0 1 tcp 1040 ------- 0 0.0 4.0 17 32
r 10.286311 1 0 ack 40 ------- 0 4.0 0.0 9 24
+ 10.286311 0 1 tcp 1040 ------- 0 0.0 4.0 19 34
+ 10.286311 0 1 tcp 1040 ------- 0 0.0 4.0 20 35
r 10.296311 0 1 tcp 1040 ------- 0 0.0 4.0 16 31
+ 10.296311 1 2 tcp 1040 ------- 0 0.0 4.0 16 31
- 10.296311 1 2 tcp 1040 ------- 0 0.0 4.0 16 31
r 10.3652 2 1 ack 40 ------- 0 4.0 0.0 10 25
+ 10.3652 1 0 ack 40 ------- 0 4.0 0.0 10 25
- 10.3652 1 0 ack 40 ------- 0 4.0 0.0 10 25
- 10.378756 0 1 tcp 1040 ------- 0 0.0 4.0 18 33
r 10.378756 1 0 ack 40 ------- 0 4.0 0.0 10 25
+ 10.378756 0 1 tcp 1040 ------- 0 0.0 4.0 21 36
+ 10.378756 0 1 tcp 1040 ------- 0 0.0 4.0 22 37
r 10.388756 0 1 tcp 1040 ------- 0 0.0 4.0 17 32
+ 10.388756 1 2 tcp 1040 ------- 0 0.0 4.0 17 32
- 10.388756 1 2 tcp 1040 ------- 0 0.0 4.0 17 32
r 10.457644 2 1 ack 40 ------- 0 4.0 0.0 11 26
+ 10.457644 1 0 ack 40 ------- 0 4.0 0.0 11 26
- 10.457644 1 0 ack 40 ------- 0 4.0 0.0 11 26
- 10.4712 0 1 tcp 1040 ------- 0 0.0 4.0 19 34
r 10.4712 1 0 ack 40 ------- 0 4.0 0.0 11 26
+ 10.4712 0 1 tcp 1040 ------- 0 0.0 4.0 23 38
+ 10.4712 0 1 tcp 1040 ------- 0 0.0 4.0 24 39
r 10.4812 0 1 tcp 1040 ------- 0 0.0 4.0 18 33
+ 10.4812 1 2 tcp 1040 ------- 0 0.0 4.0 18 33
- 10.4812 1 2 tcp 1040 ------- 0 0.0 4.0 18 33
r 10.550089 2 1 ack 40 ------- 0 4.0 0.0 12 27
+ 10.550089 1 0 ack 40 ------- 0 4.0 0.0 12 27
- 10.550089 1 0 ack 40 ------- 0 4.0 0.0 12 27
- 10.563644 0 1 tcp 1040 ------- 0 0.0 4.0 20 35
r 10.563644 1 0 ack 40 ------- 0 4.0 0.0 12 27
+ 10.563644 0 1 tcp 1040 ------- 0 0.0 4.0 25 40
+ 10.563644 0 1 tcp 1040 ------- 0 0.0 4.0 26 41
r 10.573644 0 1 tcp 1040 ------- 0 0.0 4.0 19 34
+ 10.573644 1 2 tcp 1040 ------- 0 0.0 4.0 19 34
- 10.573644 1 2 tcp 1040 ------- 0 0.0 4.0 19 34
r 10.642533 2 1 ack 40 ------- 0 4.0 0.0 13 28
+ 10.642533 1 0 ack 40 ------- 0 4.0 0.0 13 28
- 10.642533 1 0 ack 40 ------- 0 4.0 0.0 13 28
- 10.656089 0 1 tcp 1040 ------- 0 0.0 4.0 21 36
r 10.656089 1 0 ack 40 ------- 0 4.0 0.0 13 28
+ 10.656089 0 1 tcp 1040 ------- 0 0.0 4.0 27 42
+ 10.656089 0 1 tcp 1040 ------- 0 0.0 4.0 28 43
r 10.666089 0 1 tcp 1040 ------- 0 0.0 4.0 20 35
+ 10.666089 1 2 tcp 1040 ------- 0 0.0 4.0 20 35
- 10.666089 1 2 tcp 1040 ------- 0 0.0 4.0 20 35
r 10.734978 2 1 ack 40 ------- 0 4.0 0.0 14 29
+ 10.734978 1 0 ack 40 ------- 0 4.0 0.0 14 29
- 10.734978 1 0 ack 40 ------- 0 4.0 0.0 14 29
- 10.748533 0 1 tcp 1040 ------- 0 0.0 4.0 22 37
r 10.748533 1 0 ack 40 ------- 0 4.0 0.0 14 29
+ 10.748533 0 1 tcp 1040 ------- 0 0.0 4.0 29 44
+ 10.748533 0 1 tcp 1040 ------- 0 0.0 4.0 30 45
r 10.758533 0 1 tcp 1040 ------- 0 0.0 4.0 21 36
+ 10.758533 1 2 tcp 1040 ------- 0 0.0 4.0 21 36
- 10.758533 1 2 tcp 1040 ------- 0 0.0 4.0 21 36
r 10.787067 1 2 tcp 1040 ------- 0 0.0 4.0 15 30
+ 10.787067 2 3 tcp 1040 ------- 0 0.0 4.0 15 30
- 10.787067 2 3 tcp 1040 ------- 0 0.0 4.0 15 30
- 10.840978 0 1 tcp 1040 ------- 0 0.0 4.0 23 38
r 10.850978 0 1 tcp 1040 ------- 0 0.0 4.0 22 37
+ 10.850978 1 2 tcp 1040 ------- 0 0.0 4.0 22 37
- 10.850978 1 2 tcp 1040 ------- 0 0.0 4.0 22 37
r 10.879511 1 2 tcp 1040 ------- 0 0.0 4.0 16 31
+ 10.879511 2 3 tcp 1040 ------- 0 0.0 4.0 16 31
- 10.879511 2 3 tcp 1040 ------- 0 0.0 4.0 16 31
- 10.933422 0 1 tcp 1040 ------- 0 0.0 4.0 24 39
r 10.943422 0 1 tcp 1040 ------- 0 0.0 4.0 23 38
+ 10.943422 1 2 tcp 1040 ------- 0 0.0 4.0 23 38
- 10.943422 1 2 tcp 1040 ------- 0 0.0 4.0 23 38
r 10.971956 1 2 tcp 1040 ------- 0 0.0 4.0 17 32
+ 10.971956 2 3 tcp 1040 ------- 0 0.0 4.0 17 32
- 10.971956 2 3 tcp 1040 ------- 0 0.0 4.0 17 32
- 11.025867 0 1 tcp 1040 ------- 0 0.0 4.0 25 40
r 11.035867 0 1 tcp 1040 ------- 0 0.0 4.0 24 39
+ 11.035867 1 2 tcp 1040 ------- 0 0.0 4.0 24 39
- 11.035867 1 2 tcp 1040 ------- 0 0.0 4.0 24 39
r 11.0644 1 2 tcp 1040 ------- 0 0.0 4.0 18 33
+ 11.0644 2 3 tcp 1040 ------- 0 0.0 4.0 18 33
- 11.0644 2 3 tcp 1040 ------- 0 0.0 4.0 18 33
- 11.118311 0 1 tcp 1040 ------- 0 0.0 4.0 26 41
r 11.128311 0 1 tcp 1040 ------- 0 0.0 4.0 25 40
+ 11.128311 1 2 tcp 1040 ------- 0 0.0 4.0 25 40
- 11.128311 1 2 tcp 1040 ------- 0 0.0 4.0 25 40
r 11.156844 1 2 tcp 1040 ------- 0 0.0 4.0 19 34
+ 11.156844 2 3 tcp 1040 ------- 0 0.0 4.0 19 34
- 11.156844 2 3 tcp 1040 ------- 0 0.0 4.0 19 34
- 11.210756 0 1 tcp 1040 ------- 0 0.0 4.0 27 42
r 11.220756 0 1 tcp 1040 ------- 0 0.0 4.0 26 41
+ 11.220756 1 2 tcp 1040 ------- 0 0.0 4.0 26 41
- 11.220756 1 2 tcp 1040 ------- 0 0.0 4.0 26 41
r 11.249289 1 2 tcp 1040 ------- 0 0.0 4.0 20 35
+ 11.249289 2 3 tcp 1040 ------- 0 0.0 4.0 20 35
- 11.249289 2 3 tcp 1040 ------- 0 0.0 4.0 20 35
- 11.3032 0 1 tcp 1040 ------- 0 0.0 4.0 28 43
r 11.3132 0 1 tcp 1040 ------- 0 0.0 4.0 27 42
+ 11.3132 1 2 tcp 1040 ------- 0 0.0 4.0 27 42
- 11.3132 1 2 tcp 1040 ------- 0 0.0 4.0 27 42
r 11.341733 1 2 tcp 1040 ------- 0 0.0 4.0 21 36
+ 11.341733 2 3 tcp 1040 ------- 0 0.0 4.0 21 36
- 11.341733 2 3 tcp 1040 ------- 0 0.0 4.0 21 36
r 11.370267 2 3 tcp 1040 ------- 0 0.0 4.0 15 30
+ 11.370267 3 4 tcp 1040 ------- 0 0.0 4.0 15 30
- 11.370267 3 4 tcp 1040 ------- 0 0.0 4.0 15 30
- 11.395644 0 1 tcp 1040 ------- 0 0.0 4.0 29 44
r 11.405644 0 1 tcp 1040 ------- 0 0.0 4.0 28 43
+ 11.405644 1 2 tcp 1040 ------- 0 0.0 4.0 28 43
- 11.405644 1 2 tcp 1040 ------- 0 0.0 4.0 28 43
r 11.434178 1 2 tcp 1040 ------- 0 0.0 4.0 22 37
+ 11.434178 2 3 tcp 1040 ------- 0 0.0 4.0 22 37
- 11.434178 2 3 tcp 1040 ------- 0 0.0 4.0 22 37
r 11.462711 2 3 tcp 1040 ------- 0 0.0 4.0 16 31
+ 11.462711 3 4 tcp 1040 ------- 0 0.0 4.0 16 31
- 11.462711 3 4 tcp 1040 ------- 0 0.0 4.0 16 31
- 11.488089 0 1 tcp 1040 ------- 0 0.0 4.0 30 45
r 11.498089 0 1 tcp 1040 ------- 0 0.0 4.0 29 44
+ 11.498089 1 2 tcp 1040 ------- 0 0.0 4.0 29 44
- 11.498089 1 2 tcp 1040 ------- 0 0.0 4.0 29 44
r 11.512711 3 4 tcp 1040 ------- 0 0.0 4.0 15 30
+ 11.512711 4 3 ack 40 ------- 0 4.0 0.0 15 46
- 11.512711 4 3 ack 40 ------- 0 4.0 0.0 15 46
r 11.526622 1 2 tcp 1040 ------- 0 0.0 4.0 23 38
+ 11.526622 2 3 tcp 1040 ------- 0 0.0 4.0 23 38
- 11.526622 2 3 tcp 1040 ------- 0 0.0 4.0 23 38
r 11.555156 2 3 tcp 1040 ------- 0 0.0 4.0 17 32
+ 11.555156 3 4 tcp 1040 ------- 0 0.0 4.0 17 32
- 11.555156 3 4 tcp 1040 ------- 0 0.0 4.0 17 32
r 11.566267 4 3 ack 40 ------- 0 4.0 0.0 15 46
+ 11.566267 3 2 ack 40 ------- 0 4.0 0.0 15 46
- 11.566267 3 2 ack 40 ------- 0 4.0 0.0 15 46
r 11.590533 0 1 tcp 1040 ------- 0 0.0 4.0 30 45
+ 11.590533 1 2 tcp 1040 ------- 0 0.0 4.0 30 45
- 11.590533 1 2 tcp 1040 ------- 0 0.0 4.0 30 45
r 11.605156 3 4 tcp 1040 ------- 0 0.0 4.0 16 31
+ 11.605156 4 3 ack 40 ------- 0 4.0 0.0 16 47
- 11.605156 4 3 ack 40 ------- 0 4.0 0.0 16 47
r 11.619067 1 2 tcp 1040 ------- 0 0.0 4.0 24 39
+ 11.619067 2 3 tcp 1040 ------- 0 0.0 4.0 24 39
- 11.619067 2 3 tcp 1040 ------- 0 0.0 4.0 24 39
r 11.6476 2 3 tcp 1040 ------- 0 0.0 4.0 18 33
+ 11.6476 3 4 tcp 1040 ------- 0 0.0 4.0 18 33
- 11.6476 3 4 tcp 1040 ------- 0 0.0 4.0 18 33
r 11.658711 4 3 ack 40 ------- 0 4.0 0.0 16 47
+ 11.658711 3 2 ack 40 ------- 0 4.0 0.0 16 47
- 11.658711 3 2 ack 40 ------- 0 4.0 0.0 16 47
r 11.6976 3 4 tcp 1040 ------- 0 0.0 4.0 17 32
+ 11.6976 4 3 ack 40 ------- 0 4.0 0.0 17 48
- 11.6976 4 3 ack 40 ------- 0 4.0 0.0 17 48
r 11.711511 1 2 tcp 1040 ------- 0 0.0 4.0 25 40
+ 11.711511 2 3 tcp 1040 ------- 0 0.0 4.0 25 40
- 11.711511 2 3 tcp 1040 ------- 0 0.0 4.0 25 40
r 11.740044 2 3 tcp 1040 ------- 0 0.0 4.0 19 34
+ 11.740044 3 4 tcp 1040 ------- 0 0.0 4.0 19 34
- 11.740044 3 4 tcp 1040 ------- 0 0.0 4.0 19 34
r 11.751156 4 3 ack 40 ------- 0 4.0 0.0 17 48
+ 11.751156 3 2 ack 40 ------- 0 4.0 0.0 17 48
- 11.751156 3 2 ack 40 ------- 0 4.0 0.0 17 48
r 11.790044 3 4 tcp 1040 ------- 0 0.0 4.0 18 33
+ 11.790044 4 3 ack 40 ------- 0 4.0 0.0 18 49
- 11.790044 4 3 ack 40 ------- 0 4.0 0.0 18 49
r 11.803956 1 2 tcp 1040 ------- 0 0.0 4.0 26 41
+ 11.803956 2 3 tcp 1040 ------- 0 0.0 4.0 26 41
- 11.803956 2 3 tcp 1040 ------- 0 0.0 4.0 26 41
r 11.832489 2 3 tcp 1040 ------- 0 0.0 4.0 20 35
+ 11.832489 3 4 tcp 1040 ------- 0 0.0 4.0 20 35
- 11.832489 3 4 tcp 1040 ------- 0 0.0 4.0 20 35
r 11.8436 4 3 ack 40 ------- 0 4.0 0.0 18 49
+ 11.8436 3 2 ack 40 ------- 0 4.0 0.0 18 49
- 11.8436 3 2 ack 40 ------- 0 4.0 0.0 18 49
r 11.882489 3 4 tcp 1040 ------- 0 0.0 4.0 19 34
+ 11.882489 4 3 ack 40 ------- 0 4.0 0.0 19 50
- 11.882489 4 3 ack 40 ------- 0 4.0 0.0 19 50
r 11.8964 1 2 tcp 1040 ------- 0 0.0 4.0 27 42
+ 11.8964 2 3 tcp 1040 ------- 0 0.0 4.0 27 42
- 11.8964 2 3 tcp 1040 ------- 0 0.0 4.0 27 42
r 11.924933 2 3 tcp 1040 ------- 0 0.0 4.0 21 36
+ 11.924933 3 4 tcp 1040 ------- 0 0.0 4.0 21 36
- 11.924933 3 4 tcp 1040 ------- 0 0.0 4.0 21 36
r 11.936044 4 3 ack 40 ------- 0 4.0 0.0 19 50
+ 11.936044 3 2 ack 40 ------- 0 4.0 0.0 19 50
- 11.936044 3 2 ack 40 ------- 0 4.0 0.0 19 50
r 11.974933 3 4 tcp 1040 ------- 0 0.0 4.0 20 35
+ 11.974933 4 3 ack 40 ------- 0 4.0 0.0 20 51
- 11.974933 4 3 ack 40 ------- 0 4.0 0.0 20 51
r 11.988844 1 2 tcp 1040 ------- 0 0.0 4.0 28 43
+ 11.988844 2 3 tcp 1040 ------- 0 0.0 4.0 28 43
- 11.988844 2 3 tcp 1040 ------- 0 0.0 4.0 28 43
r 12.017378 2 3 tcp 1040 ------- 0 0.0 4.0 22 37
+ 12.017378 3 4 tcp 1040 ------- 0 0.0 4.0 22 37
- 12.017378 3 4 tcp 1040 ------- 0 0.0 4.0 22 37
r 12.028489 4 3 ack 40 ------- 0 4.0 0.0 20 51
+ 12.028489 3 2 ack 40 ------- 0 4.0 0.0 20 51
- 12.028489 3 2 ack 40 ------- 0 4.0 0.0 20 51
r 12.067378 3 4 tcp 1040 ------- 0 0.0 4.0 21 36
+ 12.067378 4 3 ack 40 ------- 0 4.0 0.0 21 52
- 12.067378 4 3 ack 40 ------- 0 4.0 0.0 21 52
r 12.069467 3 2 ack 40 ------- 0 4.0 0.0 15 46
+ 12.069467 2 1 ack 40 ------- 0 4.0 0.0 15 46
- 12.069467 2 1 ack 40 ------- 0 4.0 0.0 15 46
r 12.081289 1 2 tcp 1040 ------- 0 0.0 4.0 29 44
+ 12.081289 2 3 tcp 1040 ------- 0 0.0 4.0 29 44
- 12.081289 2 3 tcp 1040 ------- 0 0.0 4.0 29 44
r 12.109822 2 3 tcp 1040 ------- 0 0.0 4.0 23 38
+ 12.109822 3 4 tcp 1040 ------- 0 0.0 4.0 23 38
- 12.109822 3 4 tcp 1040 ------- 0 0.0 4.0 23 38
r 12.120933 4 3 ack 40 ------- 0 4.0 0.0 21 52
+ 12.120933 3 2 ack 40 ------- 0 4.0 0.0 21 52
- 12.120933 3 2 ack 40 ------- 0 4.0 0.0 21 52
r 12.159822 3 4 tcp 1040 ------- 0 0.0 4.0 22 37
+ 12.159822 4 3 ack 40 ------- 0 4.0 0.0 22 53
- 12.159822 4 3 ack 40 ------- 0 4.0 0.0 22 53
r 12.161911 3 2 ack 40 ------- 0 4.0 0.0 16 47
+ 12.161911 2 1 ack 40 ------- 0 4.0 0.0 16 47
- 12.161911 2 1 ack 40 ------- 0 4.0 0.0 16 47
r 12.173733 1 2 tcp 1040 ------- 0 0.0 4.0 30 45
+ 12.173733 2 3 tcp 1040 ------- 0 0.0 4.0 30 45
- 12.173733 2 3 tcp 1040 ------- 0 0.0 4.0 30 45
r 12.202267 2 3 tcp 1040 ------- 0 0.0 4.0 24 39
+ 12.202267 3 4 tcp 1040 ------- 0 0.0 4.0 24 39
- 12.202267 3 4 tcp 1040 ------- 0 0.0 4.0 24 39
r 12.213378 4 3 ack 40 ------- 0 4.0 0.0 22 53
+ 12.213378 3 2 ack 40 ------- 0 4.0 0.0 22 53
- 12.213378 3 2 ack 40 ------- 0 4.0 0.0 22 53
r 12.252267 3 4 tcp 1040 ------- 0 0.0 4.0 23 38
+ 12.252267 4 3 ack 40 ------- 0 4.0 0.0 23 54
- 12.252267 4 3 ack 40 ------- 0 4.0 0.0 23 54
r 12.254356 3 2 ack 40 ------- 0 4.0 0.0 17 48
+ 12.254356 2 1 ack 40 ------- 0 4.0 0.0 17 48
- 12.254356 2 1 ack 40 ------- 0 4.0 0.0 17 48
r 12.294711 2 3 tcp 1040 ------- 0 0.0 4.0 25 40
+ 12.294711 3 4 tcp 1040 ------- 0 0.0 4.0 25 40
- 12.294711 3 4 tcp 1040 ------- 0 0.0 4.0 25 40
r 12.305822 4 3 ack 40 ------- 0 4.0 0.0 23 54
+ 12.305822 3 2 ack 40 ------- 0 4.0 0.0 23 54
- 12.305822 3 2 ack 40 ------- 0 4.0 0.0 23 54
r 12.344711 3 4 tcp 1040 ------- 0 0.0 4.0 24 39
+ 12.344711 4 3 ack 40 ------- 0 4.0 0.0 24 55
- 12.344711 4 3 ack 40 ------- 0 4.0 0.0 24 55
r 12.3468 3 2 ack 40 ------- 0 4.0 0.0 18 49
+ 12.3468 2 1 ack 40 ------- 0 4.0 0.0 18 49
- 12.3468 2 1 ack 40 ------- 0 4.0 0.0 18 49
r 12.387156 2 3 tcp 1040 ------- 0 0.0 4.0 26 41
+ 12.387156 3 4 tcp 1040 ------- 0 0.0 4.0 26 41
- 12.387156 3 4 tcp 1040 ------- 0 0.0 4.0 26 41
r 12.398267 4 3 ack 40 ------- 0 4.0 0.0 24 55
+ 12.398267 3 2 ack 40 ------- 0 4.0 0.0 24 55
- 12.398267 3 2 ack 40 ------- 0 4.0 0.0 24 55
r 12.437156 3 4 tcp 1040 ------- 0 0.0 4.0 25 40
+ 12.437156 4 3 ack 40 ------- 0 4.0 0.0 25 56
- 12.437156 4 3 ack 40 ------- 0 4.0 0.0 25 56
r 12.439244 3 2 ack 40 ------- 0 4.0 0.0 19 50
+ 12.439244 2 1 ack 40 ------- 0 4.0 0.0 19 50
- 12.439244 2 1 ack 40 ------- 0 4.0 0.0 19 50
r 12.4796 2 3 tcp 1040 ------- 0 0.0 4.0 27 42
+ 12.4796 3 4 tcp 1040 ------- 0 0.0 4.0 27 42
- 12.4796 3 4 tcp 1040 ------- 0 0.0 4.0 27 42
r 12.490711 4 3 ack 40 ------- 0 4.0 0.0 25 56
+ 12.490711 3 2 ack 40 ------- 0 4.0 0.0 25 56
- 12.490711 3 2 ack 40 ------- 0 4.0 0.0 25 56
r 12.5296 3 4 tcp 1040 ------- 0 0.0 4.0 26 41
+ 12.5296 4 3 ack 40 ------- 0 4.0 0.0 26 57
- 12.5296 4 3 ack 40 ------- 0 4.0 0.0 26 57
r 12.531689 3 2 ack 40 ------- 0 4.0 0.0 20 51
+ 12.531689 2 1 ack 40 ------- 0 4.0 0.0 20 51
- 12.531689 2 1 ack 40 ------- 0 4.0 0.0 20 51
r 12.572044 2 3 tcp 1040 ------- 0 0.0 4.0 28 43
+ 12.572044 3 4 tcp 1040 ------- 0 0.0 4.0 28 43
- 12.572044 3 4 tcp 1040 ------- 0 0.0 4.0 28 43
r 12.572667 2 1 ack 40 ------- 0 4.0 0.0 15 46
+ 12.572667 1 0 ack 40 ------- 0 4.0 0.0 15 46
- 12.572667 1 0 ack 40 ------- 0 4.0 0.0 15 46
r 12.583156 4 3 ack 40 ------- 0 4.0 0.0 26 57
+ 12.583156 3 2 ack 40 ------- 0 4.0 0.0 26 57
- 12.583156 3 2 ack 40 ------- 0 4.0 0.0 26 57
r 12.586222 1 0 ack 40 ------- 0 4.0 0.0 15 46
+ 12.586222 0 1 tcp 1040 ------- 0 0.0 4.0 31 58
- 12.586222 0 1 tcp 1040 ------- 0 0.0 4.0 31 58
+ 12.586222 0 1 tcp 1040 ------- 0 0.0 4.0 32 59
r 12.622044 3 4 tcp 1040 ------- 0 0.0 4.0 27 42
+ 12.622044 4 3 ack 40 ------- 0 4.0 0.0 27 60
- 12.622044 4 3 ack 40 ------- 0 4.0 0.0 27 60
r 12.624133 3 2 ack 40 ------- 0 4.0 0.0 21 52
+ 12.624133 2 1 ack 40 ------- 0 4.0 0.0 21 52
- 12.624133 2 1 ack 40 ------- 0 4.0 0.0 21 52
r 12.664489 2 3 tcp 1040 ------- 0 0.0 4.0 29 44
+ 12.664489 3 4 tcp 1040 ------- 0 0.0 4.0 29 44
- 12.664489 3 4 tcp 1040 ------- 0 0.0 4.0 29 44
r 12.665111 2 1 ack 40 ------- 0 4.0 0.0 16 47
+ 12.665111 1 0 ack 40 ------- 0 4.0 0.0 16 47
- 12.665111 1 0 ack 40 ------- 0 4.0 0.0 16 47
r 12.6756 4 3 ack 40 ------- 0 4.0 0.0 27 60
+ 12.6756 3 2 ack 40 ------- 0 4.0 0.0 27 60